<?xml version="1.0" encoding="UTF-8"?>

<!-- generated on 2026-04-01T23:04:06.746258+05:30 by Eclipse SUMO GUI 1.26.0
<sumoConfiguration xmlns:xsi="http://www.w3.org/2001/XMLSchema-instance" xsi:noNamespaceSchemaLocation="http://sumo.dlr.de/xsd/sumoConfiguration.xsd">

    <input>
        <net-file value="cross.net.xml"/>
        <route-files value="cross.rou.xml"/>
        <additional-files value="cross.add.xml"/>
    </input>

    <output>
        <tripinfo-output value="tripinfo1.xml"/>
    </output>

    <time>
        <begin value="0"/>
    </time>

    <processing>
        <waiting-time-memory value="1000"/>
    </processing>

    <report>
        <verbose value="true"/>
        <no-step-log value="true"/>
    </report>

</sumoConfiguration>
-->

<detector xmlns:xsi="http://www.w3.org/2001/XMLSchema-instance" xsi:noNamespaceSchemaLocation="http://sumo.dlr.de/xsd/det_e1_file.xsd">
    <interval begin="0.00" end="30.00" id="0" nVehContrib="0" flow="0.00" occupancy="0.00" speed="-1.00" harmonicMeanSpeed="-1.00" length="-1.00" nVehEntered="0"/>
    <interval begin="30.00" end="60.00" id="0" nVehContrib="0" flow="0.00" occupancy="0.00" speed="-1.00" harmonicMeanSpeed="-1.00" length="-1.00" nVehEntered="0"/>
    <interval begin="60.00" end="90.00" id="0" nVehContrib="0" flow="0.00" occupancy="0.00" speed="-1.00" harmonicMeanSpeed="-1.00" length="-1.00" nVehEntered="0"/>
    <interval begin="90.00" end="120.00" id="0" nVehContrib="0" flow="0.00" occupancy="0.00" speed="-1.00" harmonicMeanSpeed="-1.00" length="-1.00" nVehEntered="0"/>
    <interval begin="120.00" end="150.00" id="0" nVehContrib="1" flow="120.00" occupancy="1.08" speed="15.38" harmonicMeanSpeed="15.38" length="5.00" nVehEntered="1"/>
    <interval begin="150.00" end="180.00" id="0" nVehContrib="0" flow="0.00" occupancy="0.00" speed="-1.00" harmonicMeanSpeed="-1.00" length="-1.00" nVehEntered="0"/>
    <interval begin="180.00" end="210.00" id="0" nVehContrib="0" flow="0.00" occupancy="0.00" speed="-1.00" harmonicMeanSpeed="-1.00" length="-1.00" nVehEntered="0"/>
    <interval begin="210.00" end="240.00" id="0" nVehContrib="0" flow="0.00" occupancy="0.00" speed="-1.00" harmonicMeanSpeed="-1.00" length="-1.00" nVehEntered="0"/>
    <interval begin="240.00" end="270.00" id="0" nVehContrib="1" flow="120.00" occupancy="1.16" speed="14.35" harmonicMeanSpeed="14.35" length="5.00" nVehEntered="1"/>
    <interval begin="270.00" end="300.00" id="0" nVehContrib="1" flow="120.00" occupancy="3.96" speed="4.20" harmonicMeanSpeed="4.20" length="5.00" nVehEntered="1"/>
    <interval begin="300.00" end="330.00" id="0" nVehContrib="1" flow="120.00" occupancy="1.70" speed="9.82" harmonicMeanSpeed="9.82" length="5.00" nVehEntered="1"/>
    <interval begin="330.00" end="360.00" id="0" nVehContrib="0" flow="0.00" occupancy="0.00" speed="-1.00" harmonicMeanSpeed="-1.00" length="-1.00" nVehEntered="0"/>
    <interval begin="360.00" end="390.00" id="0" nVehContrib="0" flow="0.00" occupancy="0.00" speed="-1.00" harmonicMeanSpeed="-1.00" length="-1.00" nVehEntered="0"/>
    <interval begin="390.00" end="420.00" id="0" nVehContrib="2" flow="240.00" occupancy="5.22" speed="9.73" harmonicMeanSpeed="6.38" length="5.00" nVehEntered="2"/>
    <interval begin="420.00" end="450.00" id="0" nVehContrib="1" flow="120.00" occupancy="1.80" speed="9.28" harmonicMeanSpeed="9.28" length="5.00" nVehEntered="1"/>
    <interval begin="450.00" end="480.00" id="0" nVehContrib="1" flow="120.00" occupancy="5.47" speed="3.05" harmonicMeanSpeed="3.05" length="5.00" nVehEntered="1"/>
    <interval begin="480.00" end="510.00" id="0" nVehContrib="1" flow="120.00" occupancy="1.02" speed="16.40" harmonicMeanSpeed="16.40" length="5.00" nVehEntered="1"/>
    <interval begin="510.00" end="540.00" id="0" nVehContrib="0" flow="0.00" occupancy="0.00" speed="-1.00" harmonicMeanSpeed="-1.00" length="-1.00" nVehEntered="0"/>
    <interval begin="540.00" end="570.00" id="0" nVehContrib="0" flow="0.00" occupancy="0.00" speed="-1.00" harmonicMeanSpeed="-1.00" length="-1.00" nVehEntered="0"/>
    <interval begin="570.00" end="600.00" id="0" nVehContrib="0" flow="0.00" occupancy="0.00" speed="-1.00" harmonicMeanSpeed="-1.00" length="-1.00" nVehEntered="0"/>
    <interval begin="600.00" end="630.00" id="0" nVehContrib="0" flow="0.00" occupancy="0.00" speed="-1.00" harmonicMeanSpeed="-1.00" length="-1.00" nVehEntered="0"/>
    <interval begin="630.00" end="660.00" id="0" nVehContrib="0" flow="0.00" occupancy="0.00" speed="-1.00" harmonicMeanSpeed="-1.00" length="-1.00" nVehEntered="0"/>
    <interval begin="660.00" end="690.00" id="0" nVehContrib="0" flow="0.00" occupancy="0.00" speed="-1.00" harmonicMeanSpeed="-1.00" length="-1.00" nVehEntered="0"/>
    <interval begin="690.00" end="720.00" id="0" nVehContrib="1" flow="120.00" occupancy="1.04" speed="16.00" harmonicMeanSpeed="16.00" length="5.00" nVehEntered="1"/>
    <interval begin="720.00" end="750.00" id="0" nVehContrib="1" flow="120.00" occupancy="1.14" speed="14.59" harmonicMeanSpeed="14.59" length="5.00" nVehEntered="1"/>
    <interval begin="750.00" end="780.00" id="0" nVehContrib="0" flow="0.00" occupancy="0.00" speed="-1.00" harmonicMeanSpeed="-1.00" length="-1.00" nVehEntered="0"/>
    <interval begin="780.00" end="810.00" id="0" nVehContrib="1" flow="120.00" occupancy="1.00" speed="16.63" harmonicMeanSpeed="16.63" length="5.00" nVehEntered="1"/>
    <interval begin="810.00" end="840.00" id="0" nVehContrib="2" flow="240.00" occupancy="2.11" speed="15.86" harmonicMeanSpeed="15.83" length="5.00" nVehEntered="2"/>
    <interval begin="840.00" end="870.00" id="0" nVehContrib="0" flow="0.00" occupancy="0.00" speed="-1.00" harmonicMeanSpeed="-1.00" length="-1.00" nVehEntered="0"/>
    <interval begin="870.00" end="900.00" id="0" nVehContrib="0" flow="0.00" occupancy="0.00" speed="-1.00" harmonicMeanSpeed="-1.00" length="-1.00" nVehEntered="0"/>
    <interval begin="900.00" end="930.00" id="0" nVehContrib="2" flow="240.00" occupancy="3.32" speed="10.16" harmonicMeanSpeed="10.05" length="5.00" nVehEntered="2"/>
    <interval begin="930.00" end="960.00" id="0" nVehContrib="0" flow="0.00" occupancy="0.00" speed="-1.00" harmonicMeanSpeed="-1.00" length="-1.00" nVehEntered="0"/>
    <interval begin="960.00" end="990.00" id="0" nVehContrib="0" flow="0.00" occupancy="0.00" speed="-1.00" harmonicMeanSpeed="-1.00" length="-1.00" nVehEntered="0"/>
    <interval begin="990.00" end="1020.00" id="0" nVehContrib="0" flow="0.00" occupancy="0.00" speed="-1.00" harmonicMeanSpeed="-1.00" length="-1.00" nVehEntered="0"/>
    <interval begin="1020.00" end="1050.00" id="0" nVehContrib="1" flow="120.00" occupancy="3.93" speed="4.24" harmonicMeanSpeed="4.24" length="5.00" nVehEntered="1"/>
    <interval begin="1050.00" end="1080.00" id="0" nVehContrib="1" flow="120.00" occupancy="1.12" speed="14.85" harmonicMeanSpeed="14.85" length="5.00" nVehEntered="1"/>
    <interval begin="1080.00" end="1110.00" id="0" nVehContrib="2" flow="240.00" occupancy="2.43" speed="13.74" harmonicMeanSpeed="13.72" length="5.00" nVehEntered="2"/>
    <interval begin="1110.00" end="1140.00" id="0" nVehContrib="0" flow="0.00" occupancy="0.00" speed="-1.00" harmonicMeanSpeed="-1.00" length="-1.00" nVehEntered="0"/>
    <interval begin="1140.00" end="1170.00" id="0" nVehContrib="1" flow="120.00" occupancy="1.21" speed="13.77" harmonicMeanSpeed="13.77" length="5.00" nVehEntered="1"/>
    <interval begin="1170.00" end="1200.00" id="0" nVehContrib="0" flow="0.00" occupancy="0.00" speed="-1.00" harmonicMeanSpeed="-1.00" length="-1.00" nVehEntered="0"/>
    <interval begin="1200.00" end="1230.00" id="0" nVehContrib="0" flow="0.00" occupancy="0.00" speed="-1.00" harmonicMeanSpeed="-1.00" length="-1.00" nVehEntered="0"/>
    <interval begin="1230.00" end="1260.00" id="0" nVehContrib="2" flow="240.00" occupancy="3.26" speed="10.24" harmonicMeanSpeed="10.23" length="5.00" nVehEntered="2"/>
    <interval begin="1260.00" end="1290.00" id="0" nVehContrib="0" flow="0.00" occupancy="0.00" speed="-1.00" harmonicMeanSpeed="-1.00" length="-1.00" nVehEntered="0"/>
    <interval begin="1290.00" end="1320.00" id="0" nVehContrib="0" flow="0.00" occupancy="0.00" speed="-1.00" harmonicMeanSpeed="-1.00" length="-1.00" nVehEntered="0"/>
    <interval begin="1320.00" end="1350.00" id="0" nVehContrib="1" flow="120.00" occupancy="4.13" speed="4.04" harmonicMeanSpeed="4.04" length="5.00" nVehEntered="1"/>
    <interval begin="1350.00" end="1380.00" id="0" nVehContrib="0" flow="0.00" occupancy="0.00" speed="-1.00" harmonicMeanSpeed="-1.00" length="-1.00" nVehEntered="0"/>
    <interval begin="1380.00" end="1410.00" id="0" nVehContrib="2" flow="240.00" occupancy="3.04" speed="11.37" harmonicMeanSpeed="10.95" length="5.00" nVehEntered="2"/>
    <interval begin="1410.00" end="1440.00" id="0" nVehContrib="0" flow="0.00" occupancy="0.00" speed="-1.00" harmonicMeanSpeed="-1.00" length="-1.00" nVehEntered="0"/>
    <interval begin="1440.00" end="1470.00" id="0" nVehContrib="0" flow="0.00" occupancy="0.00" speed="-1.00" harmonicMeanSpeed="-1.00" length="-1.00" nVehEntered="0"/>
    <interval begin="1470.00" end="1500.00" id="0" nVehContrib="0" flow="0.00" occupancy="0.00" speed="-1.00" harmonicMeanSpeed="-1.00" length="-1.00" nVehEntered="0"/>
    <interval begin="1500.00" end="1530.00" id="0" nVehContrib="0" flow="0.00" occupancy="0.00" speed="-1.00" harmonicMeanSpeed="-1.00" length="-1.00" nVehEntered="0"/>
    <interval begin="1530.00" end="1560.00" id="0" nVehContrib="0" flow="0.00" occupancy="0.00" speed="-1.00" harmonicMeanSpeed="-1.00" length="-1.00" nVehEntered="0"/>
    <interval begin="1560.00" end="1590.00" id="0" nVehContrib="0" flow="0.00" occupancy="0.00" speed="-1.00" harmonicMeanSpeed="-1.00" length="-1.00" nVehEntered="0"/>
    <interval begin="1590.00" end="1620.00" id="0" nVehContrib="0" flow="0.00" occupancy="0.00" speed="-1.00" harmonicMeanSpeed="-1.00" length="-1.00" nVehEntered="0"/>
    <interval begin="1620.00" end="1650.00" id="0" nVehContrib="1" flow="120.00" occupancy="1.07" speed="15.59" harmonicMeanSpeed="15.59" length="5.00" nVehEntered="1"/>
    <interval begin="1650.00" end="1680.00" id="0" nVehContrib="3" flow="360.00" occupancy="4.27" speed="12.16" harmonicMeanSpeed="11.71" length="5.00" nVehEntered="3"/>
    <interval begin="1680.00" end="1710.00" id="0" nVehContrib="0" flow="0.00" occupancy="0.00" speed="-1.00" harmonicMeanSpeed="-1.00" length="-1.00" nVehEntered="0"/>
    <interval begin="1710.00" end="1740.00" id="0" nVehContrib="0" flow="0.00" occupancy="0.00" speed="-1.00" harmonicMeanSpeed="-1.00" length="-1.00" nVehEntered="0"/>
    <interval begin="1740.00" end="1770.00" id="0" nVehContrib="1" flow="120.00" occupancy="3.77" speed="4.42" harmonicMeanSpeed="4.42" length="5.00" nVehEntered="1"/>
    <interval begin="1770.00" end="1800.00" id="0" nVehContrib="3" flow="360.00" occupancy="7.55" speed="9.77" harmonicMeanSpeed="6.62" length="5.00" nVehEntered="3"/>
    <interval begin="1800.00" end="1830.00" id="0" nVehContrib="1" flow="120.00" occupancy="4.58" speed="3.64" harmonicMeanSpeed="3.64" length="5.00" nVehEntered="1"/>
    <interval begin="1830.00" end="1860.00" id="0" nVehContrib="0" flow="0.00" occupancy="0.00" speed="-1.00" harmonicMeanSpeed="-1.00" length="-1.00" nVehEntered="0"/>
    <interval begin="1860.00" end="1890.00" id="0" nVehContrib="2" flow="240.00" occupancy="12.15" speed="3.00" harmonicMeanSpeed="2.74" length="5.00" nVehEntered="2"/>
    <interval begin="1890.00" end="1920.00" id="0" nVehContrib="0" flow="0.00" occupancy="0.00" speed="-1.00" harmonicMeanSpeed="-1.00" length="-1.00" nVehEntered="0"/>
    <interval begin="1920.00" end="1950.00" id="0" nVehContrib="0" flow="0.00" occupancy="0.00" speed="-1.00" harmonicMeanSpeed="-1.00" length="-1.00" nVehEntered="0"/>
    <interval begin="1950.00" end="1980.00" id="0" nVehContrib="2" flow="240.00" occupancy="2.37" speed="14.20" harmonicMeanSpeed="14.05" length="5.00" nVehEntered="2"/>
    <interval begin="1980.00" end="2010.00" id="0" nVehContrib="2" flow="240.00" occupancy="6.79" speed="6.44" harmonicMeanSpeed="4.91" length="5.00" nVehEntered="2"/>
    <interval begin="2010.00" end="2040.00" id="0" nVehContrib="0" flow="0.00" occupancy="0.00" speed="-1.00" harmonicMeanSpeed="-1.00" length="-1.00" nVehEntered="0"/>
    <interval begin="2040.00" end="2070.00" id="0" nVehContrib="0" flow="0.00" occupancy="0.00" speed="-1.00" harmonicMeanSpeed="-1.00" length="-1.00" nVehEntered="0"/>
    <interval begin="2070.00" end="2100.00" id="0" nVehContrib="0" flow="0.00" occupancy="0.00" speed="-1.00" harmonicMeanSpeed="-1.00" length="-1.00" nVehEntered="0"/>
    <interval begin="2100.00" end="2130.00" id="0" nVehContrib="0" flow="0.00" occupancy="0.00" speed="-1.00" harmonicMeanSpeed="-1.00" length="-1.00" nVehEntered="0"/>
    <interval begin="2130.00" end="2160.00" id="0" nVehContrib="0" flow="0.00" occupancy="0.00" speed="-1.00" harmonicMeanSpeed="-1.00" length="-1.00" nVehEntered="0"/>
    <interval begin="2160.00" end="2190.00" id="0" nVehContrib="1" flow="120.00" occupancy="3.44" speed="4.84" harmonicMeanSpeed="4.84" length="5.00" nVehEntered="1"/>
    <interval begin="2190.00" end="2220.00" id="0" nVehContrib="0" flow="0.00" occupancy="0.00" speed="-1.00" harmonicMeanSpeed="-1.00" length="-1.00" nVehEntered="0"/>
    <interval begin="2220.00" end="2250.00" id="0" nVehContrib="1" flow="120.00" occupancy="1.01" speed="16.43" harmonicMeanSpeed="16.43" length="5.00" nVehEntered="1"/>
    <interval begin="2250.00" end="2280.00" id="0" nVehContrib="1" flow="120.00" occupancy="1.07" speed="15.60" harmonicMeanSpeed="15.60" length="5.00" nVehEntered="1"/>
    <interval begin="2280.00" end="2310.00" id="0" nVehContrib="0" flow="0.00" occupancy="0.00" speed="-1.00" harmonicMeanSpeed="-1.00" length="-1.00" nVehEntered="0"/>
    <interval begin="2310.00" end="2340.00" id="0" nVehContrib="0" flow="0.00" occupancy="0.00" speed="-1.00" harmonicMeanSpeed="-1.00" length="-1.00" nVehEntered="0"/>
    <interval begin="2340.00" end="2370.00" id="0" nVehContrib="0" flow="0.00" occupancy="0.00" speed="-1.00" harmonicMeanSpeed="-1.00" length="-1.00" nVehEntered="0"/>
    <interval begin="2370.00" end="2400.00" id="0" nVehContrib="2" flow="240.00" occupancy="2.48" speed="13.45" harmonicMeanSpeed="13.42" length="5.00" nVehEntered="2"/>
    <interval begin="2400.00" end="2426.00" id="0" nVehContrib="0" flow="0.00" occupancy="0.00" speed="-1.00" harmonicMeanSpeed="-1.00" length="-1.00" nVehEntered="0"/>
</detector>
