<?xml version="1.0" encoding="UTF-8"?>

<!-- generated on 2026-04-01T23:04:06.727577+05:30 by Eclipse SUMO GUI 1.26.0
<sumoConfiguration xmlns:xsi="http://www.w3.org/2001/XMLSchema-instance" xsi:noNamespaceSchemaLocation="http://sumo.dlr.de/xsd/sumoConfiguration.xsd">

    <input>
        <net-file value="cross.net.xml"/>
        <route-files value="cross.rou.xml"/>
        <additional-files value="cross.add.xml"/>
    </input>

    <output>
        <tripinfo-output value="tripinfo1.xml"/>
    </output>

    <time>
        <begin value="0"/>
    </time>

    <processing>
        <waiting-time-memory value="1000"/>
    </processing>

    <report>
        <verbose value="true"/>
        <no-step-log value="true"/>
    </report>

</sumoConfiguration>
-->

<tripinfos xmlns:xsi="http://www.w3.org/2001/XMLSchema-instance" xsi:noNamespaceSchemaLocation="http://sumo.dlr.de/xsd/tripinfo_file.xsd">
    <tripinfo id="SW_0" depart="29.00" departLane="53o_2" departPos="5.10" departSpeed="0.00" departDelay="0.00" arrival="117.00" arrivalLane="51i_0" arrivalPos="10.00" arrivalSpeed="12.41" duration="88.00" routeLength="1015.04" waitingTime="0.00" waitingCount="0" stopTime="0.00" timeLoss="14.74" rerouteNo="0" devices="tripinfo_SW_0" vType="cars" speedFactor="1.09" vaporized=""/>
    <tripinfo id="NE_0" depart="23.00" departLane="54o_2" departPos="5.10" departSpeed="0.00" departDelay="0.00" arrival="121.00" arrivalLane="52i_0" arrivalPos="10.00" arrivalSpeed="10.16" duration="98.00" routeLength="1015.04" waitingTime="0.00" waitingCount="0" stopTime="0.00" timeLoss="15.23" rerouteNo="0" devices="tripinfo_NE_0" vType="cars" speedFactor="0.89" vaporized=""/>
    <tripinfo id="WE_0" depart="10.00" departLane="51o_0" departPos="5.10" departSpeed="0.00" departDelay="0.00" arrival="133.00" arrivalLane="52i_0" arrivalPos="10.00" arrivalSpeed="11.90" duration="123.00" routeLength="1015.18" waitingTime="22.00" waitingCount="1" stopTime="0.00" timeLoss="48.38" rerouteNo="0" devices="tripinfo_WE_0" vType="cars" speedFactor="1.03" vaporized=""/>
    <tripinfo id="WE_2" depart="39.00" departLane="51o_0" departPos="5.10" departSpeed="0.00" departDelay="0.00" arrival="133.00" arrivalLane="52i_1" arrivalPos="10.00" arrivalSpeed="12.85" duration="94.00" routeLength="1015.18" waitingTime="0.00" waitingCount="0" stopTime="0.00" timeLoss="22.60" rerouteNo="0" devices="tripinfo_WE_2" vType="cars" speedFactor="1.12" vaporized=""/>
    <tripinfo id="EW_0" depart="3.00" departLane="52o_0" departPos="5.10" departSpeed="0.00" departDelay="0.00" arrival="134.00" arrivalLane="51i_0" arrivalPos="10.00" arrivalSpeed="11.77" duration="131.00" routeLength="1015.18" waitingTime="28.00" waitingCount="1" stopTime="0.00" timeLoss="55.79" rerouteNo="0" devices="tripinfo_EW_0" vType="cars" speedFactor="1.01" vaporized=""/>
    <tripinfo id="WE_3" depart="42.00" departLane="51o_1" departPos="5.10" departSpeed="0.00" departDelay="0.00" arrival="136.00" arrivalLane="52i_0" arrivalPos="10.00" arrivalSpeed="11.51" duration="94.00" routeLength="1015.18" waitingTime="0.00" waitingCount="0" stopTime="0.00" timeLoss="17.84" rerouteNo="0" devices="tripinfo_WE_3" vType="cars" speedFactor="0.99" vaporized=""/>
    <tripinfo id="EW_2" depart="53.00" departLane="52o_0" departPos="5.10" departSpeed="0.00" departDelay="0.00" arrival="137.00" arrivalLane="51i_1" arrivalPos="10.00" arrivalSpeed="13.41" duration="84.00" routeLength="1015.18" waitingTime="0.00" waitingCount="0" stopTime="0.00" timeLoss="14.35" rerouteNo="0" devices="tripinfo_EW_2" vType="cars" speedFactor="1.16" vaporized=""/>
    <tripinfo id="EW_1" depart="26.00" departLane="52o_0" departPos="5.10" departSpeed="0.00" departDelay="0.00" arrival="141.00" arrivalLane="51i_0" arrivalPos="10.00" arrivalSpeed="10.05" duration="115.00" routeLength="1015.18" waitingTime="6.00" waitingCount="1" stopTime="0.00" timeLoss="31.39" rerouteNo="0" devices="tripinfo_EW_1" vType="cars" speedFactor="0.86" vaporized=""/>
    <tripinfo id="WE_1" depart="16.00" departLane="51o_0" departPos="5.10" departSpeed="0.00" departDelay="0.00" arrival="142.00" arrivalLane="52i_0" arrivalPos="10.00" arrivalSpeed="9.67" duration="126.00" routeLength="1015.18" waitingTime="16.00" waitingCount="1" stopTime="0.00" timeLoss="40.26" rerouteNo="0" devices="tripinfo_WE_1" vType="cars" speedFactor="0.83" vaporized=""/>
    <tripinfo id="EN_0" depart="48.00" departLane="52o_0" departPos="5.10" departSpeed="0.00" departDelay="0.00" arrival="143.00" arrivalLane="54i_0" arrivalPos="10.00" arrivalSpeed="11.04" duration="95.00" routeLength="996.93" waitingTime="0.00" waitingCount="0" stopTime="0.00" timeLoss="16.68" rerouteNo="0" devices="tripinfo_EN_0" vType="cars" speedFactor="0.94" vaporized=""/>
    <tripinfo id="WN_0" depart="8.00" departLane="51o_2" departPos="5.10" departSpeed="0.00" departDelay="0.00" arrival="171.00" arrivalLane="54i_0" arrivalPos="10.00" arrivalSpeed="12.64" duration="163.00" routeLength="1015.04" waitingTime="62.00" waitingCount="1" stopTime="0.00" timeLoss="89.71" rerouteNo="0" devices="tripinfo_WN_0" vType="cars" speedFactor="1.08" vaporized=""/>
    <tripinfo id="ES_0" depart="55.00" departLane="52o_2" departPos="5.10" departSpeed="0.00" departDelay="0.00" arrival="172.00" arrivalLane="53i_0" arrivalPos="10.00" arrivalSpeed="11.19" duration="117.00" routeLength="1015.04" waitingTime="17.00" waitingCount="1" stopTime="0.00" timeLoss="41.37" rerouteNo="0" devices="tripinfo_ES_0" vType="cars" speedFactor="1.02" vaporized=""/>
    <tripinfo id="WN_1" depart="24.00" departLane="51o_2" departPos="5.10" departSpeed="0.00" departDelay="0.00" arrival="178.00" arrivalLane="54i_0" arrivalPos="10.00" arrivalSpeed="10.79" duration="154.00" routeLength="1015.04" waitingTime="48.00" waitingCount="1" stopTime="0.00" timeLoss="74.49" rerouteNo="0" devices="tripinfo_WN_1" vType="cars" speedFactor="0.94" vaporized=""/>
    <tripinfo id="WN_2" depart="92.00" departLane="51o_2" departPos="5.10" departSpeed="0.00" departDelay="0.00" arrival="178.00" arrivalLane="54i_1" arrivalPos="10.00" arrivalSpeed="13.04" duration="86.00" routeLength="1015.04" waitingTime="0.00" waitingCount="0" stopTime="0.00" timeLoss="14.32" rerouteNo="0" devices="tripinfo_WN_2" vType="cars" speedFactor="1.13" vaporized=""/>
    <tripinfo id="WN_3" depart="97.00" departLane="51o_2" departPos="5.10" departSpeed="0.00" departDelay="2.00" arrival="181.00" arrivalLane="54i_0" arrivalPos="10.00" arrivalSpeed="13.42" duration="84.00" routeLength="1015.04" waitingTime="0.00" waitingCount="0" stopTime="0.00" timeLoss="13.87" rerouteNo="0" devices="tripinfo_WN_3" vType="cars" speedFactor="1.17" vaporized=""/>
    <tripinfo id="SN_0" depart="0.00" departLane="53o_0" departPos="5.10" departSpeed="0.00" departDelay="0.00" arrival="210.00" arrivalLane="54i_0" arrivalPos="10.00" arrivalSpeed="12.17" duration="210.00" routeLength="1015.18" waitingTime="111.00" waitingCount="1" stopTime="0.00" timeLoss="136.41" rerouteNo="0" devices="tripinfo_SN_0" vType="cars" speedFactor="1.06" vaporized=""/>
    <tripinfo id="SE_0" depart="21.00" departLane="53o_0" departPos="5.10" departSpeed="0.00" departDelay="0.00" arrival="211.00" arrivalLane="52i_0" arrivalPos="10.00" arrivalSpeed="12.33" duration="190.00" routeLength="996.93" waitingTime="89.00" waitingCount="1" stopTime="0.00" timeLoss="116.06" rerouteNo="0" devices="tripinfo_SE_0" vType="cars" speedFactor="1.05" vaporized=""/>
    <tripinfo id="NS_3" depart="96.00" departLane="54o_0" departPos="5.10" departSpeed="0.00" departDelay="2.00" arrival="211.00" arrivalLane="53i_1" arrivalPos="10.00" arrivalSpeed="13.20" duration="115.00" routeLength="1015.18" waitingTime="12.00" waitingCount="2" stopTime="0.00" timeLoss="44.53" rerouteNo="0" devices="tripinfo_NS_3" vType="cars" speedFactor="1.15" vaporized=""/>
    <tripinfo id="SN_4" depart="117.00" departLane="53o_0" departPos="5.10" departSpeed="0.00" departDelay="0.00" arrival="213.00" arrivalLane="54i_1" arrivalPos="10.00" arrivalSpeed="13.31" duration="96.00" routeLength="1015.18" waitingTime="0.00" waitingCount="0" stopTime="0.00" timeLoss="26.37" rerouteNo="0" devices="tripinfo_SN_4" vType="cars" speedFactor="1.18" vaporized=""/>
    <tripinfo id="SE_1" depart="31.00" departLane="53o_0" departPos="5.10" departSpeed="0.00" departDelay="0.00" arrival="214.00" arrivalLane="52i_0" arrivalPos="10.00" arrivalSpeed="11.58" duration="183.00" routeLength="996.93" waitingTime="82.00" waitingCount="1" stopTime="0.00" timeLoss="108.40" rerouteNo="0" devices="tripinfo_SE_1" vType="cars" speedFactor="1.03" vaporized=""/>
    <tripinfo id="NW_0" depart="71.00" departLane="54o_0" departPos="5.10" departSpeed="0.00" departDelay="0.00" arrival="214.00" arrivalLane="51i_0" arrivalPos="10.00" arrivalSpeed="11.41" duration="143.00" routeLength="996.93" waitingTime="40.00" waitingCount="1" stopTime="0.00" timeLoss="65.92" rerouteNo="0" devices="tripinfo_NW_0" vType="cars" speedFactor="0.97" vaporized=""/>
    <tripinfo id="NS_0" depart="1.00" departLane="54o_0" departPos="5.10" departSpeed="0.00" departDelay="0.00" arrival="215.00" arrivalLane="53i_0" arrivalPos="10.00" arrivalSpeed="10.88" duration="214.00" routeLength="1015.18" waitingTime="108.00" waitingCount="1" stopTime="0.00" timeLoss="135.43" rerouteNo="0" devices="tripinfo_NS_0" vType="cars" speedFactor="0.94" vaporized=""/>
    <tripinfo id="SN_1" depart="42.00" departLane="53o_0" departPos="5.10" departSpeed="0.00" departDelay="0.00" arrival="215.00" arrivalLane="54i_0" arrivalPos="10.00" arrivalSpeed="10.85" duration="173.00" routeLength="1015.18" waitingTime="67.00" waitingCount="1" stopTime="0.00" timeLoss="93.58" rerouteNo="0" devices="tripinfo_SN_1" vType="cars" speedFactor="0.93" vaporized=""/>
    <tripinfo id="NS_2" depart="92.00" departLane="54o_1" departPos="5.10" departSpeed="0.00" departDelay="0.00" arrival="215.00" arrivalLane="53i_1" arrivalPos="10.00" arrivalSpeed="10.94" duration="123.00" routeLength="1015.18" waitingTime="18.00" waitingCount="1" stopTime="0.00" timeLoss="43.92" rerouteNo="0" devices="tripinfo_NS_2" vType="cars" speedFactor="0.93" vaporized=""/>
    <tripinfo id="NS_1" depart="91.00" departLane="54o_0" departPos="5.10" departSpeed="0.00" departDelay="0.00" arrival="217.00" arrivalLane="53i_2" arrivalPos="10.00" arrivalSpeed="10.76" duration="126.00" routeLength="1015.18" waitingTime="13.00" waitingCount="1" stopTime="0.00" timeLoss="47.28" rerouteNo="0" devices="tripinfo_NS_1" vType="cars" speedFactor="0.95" vaporized=""/>
    <tripinfo id="NW_2" depart="101.00" departLane="54o_0" departPos="5.10" departSpeed="0.00" departDelay="7.00" arrival="218.00" arrivalLane="51i_0" arrivalPos="10.00" arrivalSpeed="11.87" duration="117.00" routeLength="996.93" waitingTime="13.00" waitingCount="1" stopTime="0.00" timeLoss="41.06" rerouteNo="0" devices="tripinfo_NW_2" vType="cars" speedFactor="1.01" vaporized=""/>
    <tripinfo id="SN_2" depart="47.00" departLane="53o_0" departPos="5.10" departSpeed="0.00" departDelay="0.00" arrival="220.00" arrivalLane="54i_0" arrivalPos="10.00" arrivalSpeed="10.11" duration="173.00" routeLength="1015.18" waitingTime="63.00" waitingCount="1" stopTime="0.00" timeLoss="91.07" rerouteNo="0" devices="tripinfo_SN_2" vType="cars" speedFactor="0.88" vaporized=""/>
    <tripinfo id="SN_3" depart="73.00" departLane="53o_0" departPos="5.10" departSpeed="0.00" departDelay="0.00" arrival="222.00" arrivalLane="54i_1" arrivalPos="10.00" arrivalSpeed="10.46" duration="149.00" routeLength="1015.18" waitingTime="40.00" waitingCount="1" stopTime="0.00" timeLoss="67.28" rerouteNo="0" devices="tripinfo_SN_3" vType="cars" speedFactor="0.89" vaporized=""/>
    <tripinfo id="NW_1" depart="77.00" departLane="54o_0" departPos="5.10" departSpeed="0.00" departDelay="0.00" arrival="223.00" arrivalLane="51i_0" arrivalPos="10.00" arrivalSpeed="9.42" duration="146.00" routeLength="996.93" waitingTime="35.00" waitingCount="1" stopTime="0.00" timeLoss="60.07" rerouteNo="0" devices="tripinfo_NW_1" vType="cars" speedFactor="0.83" vaporized=""/>
    <tripinfo id="SN_6" depart="135.00" departLane="53o_0" departPos="5.10" departSpeed="0.00" departDelay="1.00" arrival="224.00" arrivalLane="54i_1" arrivalPos="10.00" arrivalSpeed="11.75" duration="89.00" routeLength="1015.18" waitingTime="0.00" waitingCount="0" stopTime="0.00" timeLoss="14.60" rerouteNo="0" devices="tripinfo_SN_6" vType="cars" speedFactor="1.03" vaporized=""/>
    <tripinfo id="SN_5" depart="130.00" departLane="53o_0" departPos="5.10" departSpeed="0.00" departDelay="0.00" arrival="227.00" arrivalLane="54i_0" arrivalPos="10.00" arrivalSpeed="10.48" duration="97.00" routeLength="1015.18" waitingTime="0.00" waitingCount="0" stopTime="0.00" timeLoss="15.46" rerouteNo="0" devices="tripinfo_SN_5" vType="cars" speedFactor="0.90" vaporized=""/>
    <tripinfo id="NE_1" depart="34.00" departLane="54o_2" departPos="5.10" departSpeed="0.00" departDelay="0.00" arrival="250.00" arrivalLane="52i_0" arrivalPos="10.00" arrivalSpeed="12.32" duration="216.00" routeLength="1015.04" waitingTime="115.00" waitingCount="1" stopTime="0.00" timeLoss="141.20" rerouteNo="0" devices="tripinfo_NE_1" vType="cars" speedFactor="1.05" vaporized=""/>
    <tripinfo id="NE_2" depart="51.00" departLane="54o_2" departPos="5.10" departSpeed="0.00" departDelay="0.00" arrival="257.00" arrivalLane="52i_0" arrivalPos="10.00" arrivalSpeed="10.75" duration="206.00" routeLength="1015.04" waitingTime="99.00" waitingCount="1" stopTime="0.00" timeLoss="125.81" rerouteNo="0" devices="tripinfo_NE_2" vType="cars" speedFactor="0.94" vaporized=""/>
    <tripinfo id="SW_1" depart="160.00" departLane="53o_2" departPos="5.10" departSpeed="0.00" departDelay="0.00" arrival="258.00" arrivalLane="51i_0" arrivalPos="10.00" arrivalSpeed="10.34" duration="98.00" routeLength="1015.04" waitingTime="0.00" waitingCount="0" stopTime="0.00" timeLoss="15.32" rerouteNo="0" devices="tripinfo_SW_1" vType="cars" speedFactor="0.88" vaporized=""/>
    <tripinfo id="NE_3" depart="172.00" departLane="54o_2" departPos="5.10" departSpeed="0.00" departDelay="0.00" arrival="266.00" arrivalLane="52i_0" arrivalPos="10.00" arrivalSpeed="11.70" duration="94.00" routeLength="1015.04" waitingTime="0.00" waitingCount="0" stopTime="0.00" timeLoss="16.64" rerouteNo="0" devices="tripinfo_NE_3" vType="cars" speedFactor="1.00" vaporized=""/>
    <tripinfo id="EW_4" depart="93.00" departLane="52o_0" departPos="5.10" departSpeed="0.00" departDelay="0.00" arrival="285.00" arrivalLane="51i_0" arrivalPos="10.00" arrivalSpeed="13.70" duration="192.00" routeLength="1015.18" waitingTime="95.00" waitingCount="1" stopTime="0.00" timeLoss="122.65" rerouteNo="0" devices="tripinfo_EW_4" vType="cars" speedFactor="1.18" vaporized=""/>
    <tripinfo id="WE_7" depart="171.00" departLane="51o_0" departPos="5.10" departSpeed="0.00" departDelay="0.00" arrival="287.00" arrivalLane="52i_1" arrivalPos="10.00" arrivalSpeed="13.57" duration="116.00" routeLength="1015.18" waitingTime="17.00" waitingCount="1" stopTime="0.00" timeLoss="46.32" rerouteNo="0" devices="tripinfo_WE_7" vType="cars" speedFactor="1.17" vaporized=""/>
    <tripinfo id="EW_3" depart="70.00" departLane="52o_0" departPos="5.10" departSpeed="0.00" departDelay="0.00" arrival="289.00" arrivalLane="51i_0" arrivalPos="10.00" arrivalSpeed="11.19" duration="219.00" routeLength="1015.18" waitingTime="119.00" waitingCount="1" stopTime="0.00" timeLoss="143.67" rerouteNo="0" devices="tripinfo_EW_3" vType="cars" speedFactor="1.01" vaporized=""/>
    <tripinfo id="EW_5" depart="122.00" departLane="52o_0" departPos="5.10" departSpeed="0.00" departDelay="0.00" arrival="289.00" arrivalLane="51i_1" arrivalPos="10.00" arrivalSpeed="12.82" duration="167.00" routeLength="1015.18" waitingTime="68.00" waitingCount="1" stopTime="0.00" timeLoss="95.48" rerouteNo="0" devices="tripinfo_EW_5" vType="cars" speedFactor="1.10" vaporized=""/>
    <tripinfo id="WE_5" depart="140.00" departLane="51o_0" departPos="5.10" departSpeed="0.00" departDelay="0.00" arrival="291.00" arrivalLane="52i_0" arrivalPos="10.00" arrivalSpeed="11.01" duration="151.00" routeLength="1015.18" waitingTime="48.00" waitingCount="1" stopTime="0.00" timeLoss="73.20" rerouteNo="0" devices="tripinfo_WE_5" vType="cars" speedFactor="0.96" vaporized=""/>
    <tripinfo id="WE_8" depart="197.00" departLane="51o_0" departPos="5.10" departSpeed="0.00" departDelay="0.00" arrival="291.00" arrivalLane="52i_1" arrivalPos="10.00" arrivalSpeed="12.58" duration="94.00" routeLength="1015.18" waitingTime="0.00" waitingCount="0" stopTime="0.00" timeLoss="21.65" rerouteNo="0" devices="tripinfo_WE_8" vType="cars" speedFactor="1.08" vaporized=""/>
    <tripinfo id="EN_2" depart="114.00" departLane="52o_0" departPos="5.10" departSpeed="0.00" departDelay="0.00" arrival="292.00" arrivalLane="54i_0" arrivalPos="10.00" arrivalSpeed="10.99" duration="178.00" routeLength="996.93" waitingTime="77.00" waitingCount="1" stopTime="0.00" timeLoss="103.42" rerouteNo="0" devices="tripinfo_EN_2" vType="cars" speedFactor="1.02" vaporized=""/>
    <tripinfo id="EW_6" depart="157.00" departLane="52o_0" departPos="5.10" departSpeed="0.00" departDelay="0.00" arrival="292.00" arrivalLane="51i_0" arrivalPos="10.00" arrivalSpeed="12.49" duration="135.00" routeLength="1015.18" waitingTime="33.00" waitingCount="1" stopTime="0.00" timeLoss="62.40" rerouteNo="0" devices="tripinfo_EW_6" vType="cars" speedFactor="1.09" vaporized=""/>
    <tripinfo id="EW_7" depart="172.00" departLane="52o_0" departPos="5.10" departSpeed="0.00" departDelay="0.00" arrival="293.00" arrivalLane="51i_1" arrivalPos="10.00" arrivalSpeed="11.98" duration="121.00" routeLength="1015.18" waitingTime="19.00" waitingCount="1" stopTime="0.00" timeLoss="49.18" rerouteNo="0" devices="tripinfo_EW_7" vType="cars" speedFactor="1.10" vaporized=""/>
    <tripinfo id="WE_4" depart="84.00" departLane="51o_0" departPos="5.10" departSpeed="0.00" departDelay="0.00" arrival="294.00" arrivalLane="52i_0" arrivalPos="10.00" arrivalSpeed="10.54" duration="210.00" routeLength="1015.18" waitingTime="104.00" waitingCount="1" stopTime="0.00" timeLoss="129.48" rerouteNo="0" devices="tripinfo_WE_4" vType="cars" speedFactor="0.92" vaporized=""/>
    <tripinfo id="EN_3" depart="149.00" departLane="52o_0" departPos="5.10" departSpeed="0.00" departDelay="0.00" arrival="294.00" arrivalLane="54i_1" arrivalPos="10.00" arrivalSpeed="11.96" duration="145.00" routeLength="996.93" waitingTime="44.00" waitingCount="1" stopTime="0.00" timeLoss="71.20" rerouteNo="0" devices="tripinfo_EN_3" vType="cars" speedFactor="1.04" vaporized=""/>
    <tripinfo id="EW_8" depart="177.00" departLane="52o_0" departPos="5.10" departSpeed="0.00" departDelay="1.00" arrival="294.00" arrivalLane="51i_0" arrivalPos="10.00" arrivalSpeed="13.27" duration="117.00" routeLength="1015.18" waitingTime="17.00" waitingCount="1" stopTime="0.00" timeLoss="46.14" rerouteNo="0" devices="tripinfo_EW_8" vType="cars" speedFactor="1.14" vaporized=""/>
    <tripinfo id="EN_1" depart="83.00" departLane="52o_0" departPos="5.10" departSpeed="0.00" departDelay="0.00" arrival="296.00" arrivalLane="54i_0" arrivalPos="10.00" arrivalSpeed="9.92" duration="213.00" routeLength="996.93" waitingTime="107.00" waitingCount="1" stopTime="0.00" timeLoss="130.83" rerouteNo="0" devices="tripinfo_EN_1" vType="cars" speedFactor="0.87" vaporized=""/>
    <tripinfo id="EW_9" depart="180.00" departLane="52o_1" departPos="5.10" departSpeed="0.00" departDelay="0.00" arrival="298.00" arrivalLane="51i_0" arrivalPos="10.00" arrivalSpeed="12.11" duration="118.00" routeLength="1015.18" waitingTime="13.00" waitingCount="1" stopTime="0.00" timeLoss="43.20" rerouteNo="0" devices="tripinfo_EW_9" vType="cars" speedFactor="1.02" vaporized=""/>
    <tripinfo id="WE_6" depart="161.00" departLane="51o_0" departPos="5.10" departSpeed="0.00" departDelay="0.00" arrival="300.00" arrivalLane="52i_0" arrivalPos="10.00" arrivalSpeed="9.69" duration="139.00" routeLength="1015.18" waitingTime="28.00" waitingCount="1" stopTime="0.00" timeLoss="54.78" rerouteNo="0" devices="tripinfo_WE_6" vType="cars" speedFactor="0.85" vaporized=""/>
    <tripinfo id="EW_11" depart="199.00" departLane="52o_0" departPos="5.10" departSpeed="0.00" departDelay="0.00" arrival="300.00" arrivalLane="51i_0" arrivalPos="10.00" arrivalSpeed="11.84" duration="101.00" routeLength="1015.18" waitingTime="0.00" waitingCount="0" stopTime="0.00" timeLoss="25.93" rerouteNo="0" devices="tripinfo_EW_11" vType="cars" speedFactor="1.02" vaporized=""/>
    <tripinfo id="WE_9" depart="206.00" departLane="51o_0" departPos="5.10" departSpeed="0.00" departDelay="0.00" arrival="300.00" arrivalLane="52i_1" arrivalPos="10.00" arrivalSpeed="11.07" duration="94.00" routeLength="1015.18" waitingTime="0.00" waitingCount="0" stopTime="0.00" timeLoss="15.19" rerouteNo="0" devices="tripinfo_WE_9" vType="cars" speedFactor="0.94" vaporized=""/>
    <tripinfo id="EW_10" depart="189.00" departLane="52o_0" departPos="5.10" departSpeed="0.00" departDelay="0.00" arrival="302.00" arrivalLane="51i_0" arrivalPos="10.00" arrivalSpeed="10.98" duration="113.00" routeLength="1015.18" waitingTime="6.00" waitingCount="1" stopTime="0.00" timeLoss="35.74" rerouteNo="0" devices="tripinfo_EW_10" vType="cars" speedFactor="0.97" vaporized=""/>
    <tripinfo id="EN_4" depart="204.00" departLane="52o_0" departPos="5.10" departSpeed="0.00" departDelay="0.00" arrival="303.00" arrivalLane="54i_0" arrivalPos="10.00" arrivalSpeed="11.62" duration="99.00" routeLength="996.93" waitingTime="1.00" waitingCount="1" stopTime="0.00" timeLoss="22.55" rerouteNo="0" devices="tripinfo_EN_4" vType="cars" speedFactor="0.99" vaporized=""/>
    <tripinfo id="WE_10" depart="214.00" departLane="51o_0" departPos="5.10" departSpeed="0.00" departDelay="0.00" arrival="305.00" arrivalLane="52i_0" arrivalPos="10.00" arrivalSpeed="11.58" duration="91.00" routeLength="1015.18" waitingTime="0.00" waitingCount="0" stopTime="0.00" timeLoss="15.53" rerouteNo="0" devices="tripinfo_WE_10" vType="cars" speedFactor="1.02" vaporized=""/>
    <tripinfo id="EN_5" depart="210.00" departLane="52o_0" departPos="5.10" departSpeed="0.00" departDelay="2.00" arrival="309.00" arrivalLane="54i_0" arrivalPos="10.00" arrivalSpeed="10.66" duration="99.00" routeLength="996.93" waitingTime="0.00" waitingCount="0" stopTime="0.00" timeLoss="19.10" rerouteNo="0" devices="tripinfo_EN_5" vType="cars" speedFactor="0.91" vaporized=""/>
    <tripinfo id="ES_1" depart="172.00" departLane="52o_2" departPos="5.10" departSpeed="0.00" departDelay="0.00" arrival="329.00" arrivalLane="53i_0" arrivalPos="10.00" arrivalSpeed="11.73" duration="157.00" routeLength="1015.04" waitingTime="54.00" waitingCount="1" stopTime="0.00" timeLoss="80.29" rerouteNo="0" devices="tripinfo_ES_1" vType="cars" speedFactor="1.00" vaporized=""/>
    <tripinfo id="ES_2" depart="229.00" departLane="52o_2" departPos="5.10" departSpeed="0.00" departDelay="0.00" arrival="329.00" arrivalLane="53i_1" arrivalPos="10.00" arrivalSpeed="12.29" duration="100.00" routeLength="1015.04" waitingTime="0.00" waitingCount="0" stopTime="0.00" timeLoss="25.80" rerouteNo="0" devices="tripinfo_ES_2" vType="cars" speedFactor="1.06" vaporized=""/>
    <tripinfo id="WN_4" depart="113.00" departLane="51o_2" departPos="5.10" departSpeed="0.00" departDelay="0.00" arrival="330.00" arrivalLane="54i_0" arrivalPos="10.00" arrivalSpeed="11.43" duration="217.00" routeLength="1015.04" waitingTime="114.00" waitingCount="1" stopTime="0.00" timeLoss="139.77" rerouteNo="0" devices="tripinfo_WN_4" vType="cars" speedFactor="0.99" vaporized=""/>
    <tripinfo id="WN_6" depart="147.00" departLane="51o_2" departPos="5.10" departSpeed="0.00" departDelay="0.00" arrival="331.00" arrivalLane="54i_1" arrivalPos="10.00" arrivalSpeed="12.59" duration="184.00" routeLength="1015.04" waitingTime="82.00" waitingCount="1" stopTime="0.00" timeLoss="111.11" rerouteNo="0" devices="tripinfo_WN_6" vType="cars" speedFactor="1.09" vaporized=""/>
    <tripinfo id="WN_7" depart="197.00" departLane="51o_2" departPos="5.10" departSpeed="0.00" departDelay="0.00" arrival="332.00" arrivalLane="54i_2" arrivalPos="10.00" arrivalSpeed="12.75" duration="135.00" routeLength="1015.04" waitingTime="35.00" waitingCount="1" stopTime="0.00" timeLoss="63.18" rerouteNo="0" devices="tripinfo_WN_7" vType="cars" speedFactor="1.12" vaporized=""/>
    <tripinfo id="WN_5" depart="118.00" departLane="51o_2" departPos="5.10" departSpeed="0.00" departDelay="2.00" arrival="333.00" arrivalLane="54i_0" arrivalPos="10.00" arrivalSpeed="11.20" duration="215.00" routeLength="1015.04" waitingTime="110.00" waitingCount="1" stopTime="0.00" timeLoss="137.45" rerouteNo="0" devices="tripinfo_WN_5" vType="cars" speedFactor="0.97" vaporized=""/>
    <tripinfo id="WN_9" depart="222.00" departLane="51o_2" departPos="5.10" departSpeed="0.00" departDelay="0.00" arrival="339.00" arrivalLane="54i_0" arrivalPos="10.00" arrivalSpeed="11.83" duration="117.00" routeLength="1015.04" waitingTime="12.00" waitingCount="1" stopTime="0.00" timeLoss="41.68" rerouteNo="0" devices="tripinfo_WN_9" vType="cars" speedFactor="1.02" vaporized=""/>
    <tripinfo id="WN_8" depart="208.00" departLane="51o_2" departPos="5.10" departSpeed="0.00" departDelay="0.00" arrival="343.00" arrivalLane="54i_0" arrivalPos="10.00" arrivalSpeed="10.36" duration="135.00" routeLength="1015.04" waitingTime="25.00" waitingCount="1" stopTime="0.00" timeLoss="53.27" rerouteNo="0" devices="tripinfo_WN_8" vType="cars" speedFactor="0.91" vaporized=""/>
    <tripinfo id="WN_10" depart="227.00" departLane="51o_2" departPos="5.10" departSpeed="0.00" departDelay="4.00" arrival="344.00" arrivalLane="54i_1" arrivalPos="10.00" arrivalSpeed="11.36" duration="117.00" routeLength="1015.04" waitingTime="10.00" waitingCount="1" stopTime="0.00" timeLoss="38.68" rerouteNo="0" devices="tripinfo_WN_10" vType="cars" speedFactor="0.97" vaporized=""/>
    <tripinfo id="NS_4" depart="152.00" departLane="54o_0" departPos="5.10" departSpeed="0.00" departDelay="0.00" arrival="367.00" arrivalLane="53i_0" arrivalPos="10.00" arrivalSpeed="12.21" duration="215.00" routeLength="1015.18" waitingTime="114.00" waitingCount="1" stopTime="0.00" timeLoss="140.78" rerouteNo="0" devices="tripinfo_NS_4" vType="cars" speedFactor="1.04" vaporized=""/>
    <tripinfo id="SE_2" depart="209.00" departLane="53o_0" departPos="5.10" departSpeed="0.00" departDelay="0.00" arrival="367.00" arrivalLane="52i_0" arrivalPos="10.00" arrivalSpeed="11.53" duration="158.00" routeLength="996.93" waitingTime="59.00" waitingCount="1" stopTime="0.00" timeLoss="84.42" rerouteNo="0" devices="tripinfo_SE_2" vType="cars" speedFactor="1.04" vaporized=""/>
    <tripinfo id="SN_7" depart="157.00" departLane="53o_0" departPos="5.10" departSpeed="0.00" departDelay="0.00" arrival="369.00" arrivalLane="54i_0" arrivalPos="10.00" arrivalSpeed="11.48" duration="212.00" routeLength="1015.18" waitingTime="108.00" waitingCount="1" stopTime="0.00" timeLoss="135.63" rerouteNo="0" devices="tripinfo_SN_7" vType="cars" speedFactor="1.00" vaporized=""/>
    <tripinfo id="NW_4" depart="171.00" departLane="54o_0" departPos="5.10" departSpeed="0.00" departDelay="0.00" arrival="370.00" arrivalLane="51i_0" arrivalPos="10.00" arrivalSpeed="11.69" duration="199.00" routeLength="996.93" waitingTime="98.00" waitingCount="1" stopTime="0.00" timeLoss="124.57" rerouteNo="0" devices="tripinfo_NW_4" vType="cars" speedFactor="1.02" vaporized=""/>
    <tripinfo id="SN_9" depart="242.00" departLane="53o_0" departPos="5.10" departSpeed="0.00" departDelay="0.00" arrival="371.00" arrivalLane="54i_2" arrivalPos="10.00" arrivalSpeed="10.53" duration="129.00" routeLength="1015.18" waitingTime="24.00" waitingCount="1" stopTime="0.00" timeLoss="52.35" rerouteNo="0" devices="tripinfo_SN_9" vType="cars" speedFactor="0.98" vaporized=""/>
    <tripinfo id="NS_7" depart="254.00" departLane="54o_0" departPos="5.10" departSpeed="0.00" departDelay="0.00" arrival="371.00" arrivalLane="53i_0" arrivalPos="10.00" arrivalSpeed="11.73" duration="117.00" routeLength="1015.18" waitingTime="14.00" waitingCount="1" stopTime="0.00" timeLoss="42.11" rerouteNo="0" devices="tripinfo_NS_7" vType="cars" speedFactor="1.03" vaporized=""/>
    <tripinfo id="NS_5" depart="159.00" departLane="54o_0" departPos="5.10" departSpeed="0.00" departDelay="0.00" arrival="372.00" arrivalLane="53i_0" arrivalPos="10.00" arrivalSpeed="10.26" duration="213.00" routeLength="1015.18" waitingTime="107.00" waitingCount="1" stopTime="0.00" timeLoss="132.14" rerouteNo="0" devices="tripinfo_NS_5" vType="cars" speedFactor="0.90" vaporized=""/>
    <tripinfo id="NS_8" depart="273.00" departLane="54o_0" departPos="5.10" departSpeed="0.00" departDelay="0.00" arrival="372.00" arrivalLane="53i_1" arrivalPos="10.00" arrivalSpeed="11.27" duration="99.00" routeLength="1015.18" waitingTime="0.00" waitingCount="0" stopTime="0.00" timeLoss="25.00" rerouteNo="0" devices="tripinfo_NS_8" vType="cars" speedFactor="1.04" vaporized=""/>
    <tripinfo id="SN_10" depart="273.00" departLane="53o_0" departPos="5.10" departSpeed="0.00" departDelay="0.00" arrival="372.00" arrivalLane="54i_0" arrivalPos="10.00" arrivalSpeed="11.89" duration="99.00" routeLength="1015.18" waitingTime="0.00" waitingCount="0" stopTime="0.00" timeLoss="23.39" rerouteNo="0" devices="tripinfo_SN_10" vType="cars" speedFactor="1.01" vaporized=""/>
    <tripinfo id="SN_8" depart="174.00" departLane="53o_0" departPos="5.10" departSpeed="0.00" departDelay="0.00" arrival="373.00" arrivalLane="54i_0" arrivalPos="10.00" arrivalSpeed="10.18" duration="199.00" routeLength="1015.18" waitingTime="92.00" waitingCount="1" stopTime="0.00" timeLoss="117.79" rerouteNo="0" devices="tripinfo_SN_8" vType="cars" speedFactor="0.90" vaporized=""/>