<?xml version="1.0" encoding="UTF-8"?>

<!-- generated on 2026-04-09T21:35:59.124260+05:30 by Eclipse SUMO sumo 1.25.0
<sumoConfiguration xmlns:xsi="http://www.w3.org/2001/XMLSchema-instance" xsi:noNamespaceSchemaLocation="http://sumo.dlr.de/xsd/sumoConfiguration.xsd">

    <input>
        <net-file value="./env/3x3_priority/3x3_actuated.net.xml"/>
        <route-files value="env/3x3_priority/vtypes.add.xml,env/3x3_priority/cars.rou.xml,env/3x3_priority/buses.rou.xml,env/3x3_priority/bikes.rou.xml,env/3x3_priority/ambulance.rou.xml"/>
    </input>

    <output>
        <tripinfo-output value="actuated_tripinfo.xml"/>
    </output>

    <time>
        <step-length value="5"/>
    </time>

    <report>
        <no-warnings value="true"/>
    </report>

    <traci_server>
        <remote-port value="40253"/>
    </traci_server>

</sumoConfiguration>
-->

<tripinfos xmlns:xsi="http://www.w3.org/2001/XMLSchema-instance" xsi:noNamespaceSchemaLocation="http://sumo.dlr.de/xsd/tripinfo_file.xsd">
    <tripinfo id="bus1" depart="10.00" departLane="2Ei_0" departPos="12.10" departSpeed="0.00" departDelay="0.00" arrival="75.00" arrivalLane="1No_0" arrivalPos="239.60" arrivalSpeed="11.77" duration="65.00" routeLength="626.13" waitingTime="0.00" waitingCount="0" stopTime="0.00" timeLoss="16.74" rerouteNo="1" devices="tripinfo_bus1 routing_bus1" vType="my_bus" speedFactor="1.00" vaporized=""/>
    <tripinfo id="emergency0" depart="5.00" departLane="6Si_0" departPos="6.60" departSpeed="0.00" departDelay="5.00" arrival="75.00" arrivalLane="0No_0" arrivalPos="239.60" arrivalSpeed="13.89" duration="70.00" routeLength="772.60" waitingTime="5.00" waitingCount="1" stopTime="0.00" timeLoss="22.63" rerouteNo="1" devices="tripinfo_emergency0 routing_emergency0" vType="my_emergency" speedFactor="1.00" vaporized=""/>
    <tripinfo id="bus2" depart="20.00" departLane="6Wi_0" departPos="12.10" departSpeed="0.00" departDelay="0.00" arrival="80.00" arrivalLane="6So_0" arrivalPos="239.60" arrivalSpeed="12.47" duration="60.00" routeLength="476.13" waitingTime="0.00" waitingCount="0" stopTime="0.00" timeLoss="21.80" rerouteNo="0" devices="tripinfo_bus2 routing_bus2" vType="my_bus" speedFactor="1.00" vaporized=""/>
    <tripinfo id="emergency1" depart="20.00" departLane="2Ei_0" departPos="6.60" departSpeed="0.00" departDelay="0.00" arrival="85.00" arrivalLane="1No_0" arrivalPos="239.60" arrivalSpeed="9.64" duration="65.00" routeLength="631.63" waitingTime="0.00" waitingCount="0" stopTime="0.00" timeLoss="17.31" rerouteNo="1" devices="tripinfo_emergency1 routing_emergency1" vType="my_emergency" speedFactor="1.00" vaporized=""/>
    <tripinfo id="car8" depart="40.00" departLane="1Wi_0" departPos="5.10" departSpeed="0.00" departDelay="0.00" arrival="90.00" arrivalLane="5Ni_0" arrivalPos="129.20" arrivalSpeed="14.59" duration="50.00" routeLength="412.33" waitingTime="0.00" waitingCount="0" stopTime="0.00" timeLoss="20.39" rerouteNo="1" devices="tripinfo_car8 routing_car8" vType="my_car" speedFactor="1.09" vaporized=""/>
    <tripinfo id="emergency2" depart="40.00" departLane="6Wi_0" departPos="6.60" departSpeed="0.00" departDelay="0.00" arrival="90.00" arrivalLane="6So_0" arrivalPos="239.60" arrivalSpeed="13.68" duration="50.00" routeLength="481.63" waitingTime="0.00" waitingCount="0" stopTime="0.00" timeLoss="13.35" rerouteNo="0" devices="tripinfo_emergency2 routing_emergency2" vType="my_emergency" speedFactor="1.00" vaporized=""/>
    <tripinfo id="car1" depart="5.00" departLane="2Ni_0" departPos="5.10" departSpeed="0.00" departDelay="0.00" arrival="95.00" arrivalLane="2Eo_0" arrivalPos="239.60" arrivalSpeed="9.82" duration="90.00" routeLength="493.45" waitingTime="30.00" waitingCount="1" stopTime="0.00" timeLoss="49.04" rerouteNo="0" devices="tripinfo_car1 routing_car1" vType="my_car" speedFactor="0.94" vaporized=""/>
    <tripinfo id="bus0" depart="0.00" departLane="6Si_0" departPos="12.10" departSpeed="0.00" departDelay="0.00" arrival="95.00" arrivalLane="0No_0" arrivalPos="239.60" arrivalSpeed="13.60" duration="95.00" routeLength="787.90" waitingTime="5.00" waitingCount="1" stopTime="0.00" timeLoss="35.82" rerouteNo="1" devices="tripinfo_bus0 routing_bus0" vType="my_bus" speedFactor="1.00" vaporized=""/>
    <tripinfo id="car2" depart="10.00" departLane="6Si_0" departPos="5.10" departSpeed="0.00" departDelay="0.00" arrival="95.00" arrivalLane="6Ei_0" arrivalPos="129.20" arrivalSpeed="9.95" duration="85.00" routeLength="799.19" waitingTime="5.00" waitingCount="1" stopTime="0.00" timeLoss="27.81" rerouteNo="1" devices="tripinfo_car2 routing_car2" vType="my_car" speedFactor="1.03" vaporized=""/>
    <tripinfo id="car11" depart="55.00" departLane="3Ei_0" departPos="5.10" departSpeed="0.00" departDelay="0.00" arrival="110.00" arrivalLane="1No_0" arrivalPos="239.60" arrivalSpeed="9.78" duration="55.00" routeLength="640.16" waitingTime="0.00" waitingCount="0" stopTime="0.00" timeLoss="15.62" rerouteNo="1" devices="tripinfo_car11 routing_car11" vType="my_car" speedFactor="1.12" vaporized=""/>
    <tripinfo id="bus4" depart="40.00" departLane="3Wi_0" departPos="12.10" departSpeed="0.00" departDelay="0.00" arrival="110.00" arrivalLane="0No_0" arrivalPos="239.60" arrivalSpeed="12.21" duration="70.00" routeLength="617.10" waitingTime="5.00" waitingCount="1" stopTime="0.00" timeLoss="22.62" rerouteNo="1" devices="tripinfo_bus4 routing_bus4" vType="my_bus" speedFactor="1.00" vaporized=""/>
    <tripinfo id="car17" depart="85.00" departLane="3Ni_0" departPos="5.10" departSpeed="0.00" departDelay="0.00" arrival="110.00" arrivalLane="4Wi_1" arrivalPos="129.20" arrivalSpeed="12.88" duration="25.00" routeLength="272.65" waitingTime="0.00" waitingCount="0" stopTime="0.00" timeLoss="8.20" rerouteNo="0" devices="tripinfo_car17 routing_car17" vType="my_car" speedFactor="1.16" vaporized="teleport"/>
    <tripinfo id="car4" depart="20.00" departLane="3Wi_0" departPos="5.10" departSpeed="0.00" departDelay="0.00" arrival="125.00" arrivalLane="0No_0" arrivalPos="239.60" arrivalSpeed="11.55" duration="105.00" routeLength="643.45" waitingTime="25.00" waitingCount="2" stopTime="0.00" timeLoss="59.60" rerouteNo="1" devices="tripinfo_car4 routing_car4" vType="my_car" speedFactor="1.05" vaporized=""/>
    <tripinfo id="car5" depart="25.00" departLane="1Wi_0" departPos="5.10" departSpeed="0.00" departDelay="0.00" arrival="125.00" arrivalLane="4Si_1" arrivalPos="129.20" arrivalSpeed="10.75" duration="100.00" routeLength="829.76" waitingTime="5.00" waitingCount="1" stopTime="0.00" timeLoss="29.52" rerouteNo="1" devices="tripinfo_car5 routing_car5" vType="my_car" speedFactor="0.89" vaporized=""/>
    <tripinfo id="bike0" depart="5.00" departLane="5Wi_0" departPos="1.70" departSpeed="0.00" departDelay="5.00" arrival="145.00" arrivalLane="0Ei_0" arrivalPos="129.20" arrivalSpeed="4.46" duration="140.00" routeLength="555.25" waitingTime="0.00" waitingCount="0" stopTime="0.00" timeLoss="38.94" rerouteNo="1" devices="tripinfo_bike0 routing_bike0" vType="my_bike" speedFactor="1.01" vaporized=""/>
    <tripinfo id="car12" depart="60.00" departLane="8Si_0" departPos="5.10" departSpeed="0.00" departDelay="0.00" arrival="150.00" arrivalLane="3Ei_0" arrivalPos="129.20" arrivalSpeed="8.82" duration="90.00" routeLength="683.05" waitingTime="5.00" waitingCount="1" stopTime="0.00" timeLoss="37.77" rerouteNo="1" devices="tripinfo_car12 routing_car12" vType="my_car" speedFactor="0.99" vaporized=""/>
    <tripinfo id="bus8" depart="80.00" departLane="1Ni_0" departPos="12.10" departSpeed="0.00" departDelay="0.00" arrival="150.00" arrivalLane="5Ni_0" arrivalPos="129.20" arrivalSpeed="12.43" duration="70.00" routeLength="514.28" waitingTime="5.00" waitingCount="1" stopTime="0.00" timeLoss="28.90" rerouteNo="1" devices="tripinfo_bus8 routing_bus8" vType="my_bus" speedFactor="1.00" vaporized=""/>
    <tripinfo id="car16" depart="80.00" departLane="4Wi_0" departPos="5.10" departSpeed="0.00" departDelay="0.00" arrival="150.00" arrivalLane="8Wi_1" arrivalPos="129.20" arrivalSpeed="12.47" duration="70.00" routeLength="410.88" waitingTime="10.00" waitingCount="2" stopTime="0.00" timeLoss="44.88" rerouteNo="1" devices="tripinfo_car16 routing_car16" vType="my_car" speedFactor="0.94" vaporized="teleport"/>
    <tripinfo id="bike1" depart="10.00" departLane="2Ni_0" departPos="1.70" departSpeed="0.00" departDelay="1.00" arrival="155.00" arrivalLane="2Eo_0" arrivalPos="239.60" arrivalSpeed="5.49" duration="145.00" routeLength="496.85" waitingTime="15.00" waitingCount="1" stopTime="0.00" timeLoss="54.12" rerouteNo="0" devices="tripinfo_bike1 routing_bike1" vType="my_bike" speedFactor="1.08" vaporized=""/>
    <tripinfo id="bus3" depart="30.00" departLane="8Ei_0" departPos="12.10" departSpeed="0.00" departDelay="0.00" arrival="155.00" arrivalLane="0Wo_0" arrivalPos="239.60" arrivalSpeed="13.71" duration="125.00" routeLength="1055.33" waitingTime="5.00" waitingCount="1" stopTime="0.00" timeLoss="45.68" rerouteNo="1" devices="tripinfo_bus3 routing_bus3" vType="my_bus" speedFactor="1.00" vaporized=""/>
    <tripinfo id="bus5" depart="50.00" departLane="1Ni_0" departPos="12.10" departSpeed="0.00" departDelay="0.00" arrival="155.00" arrivalLane="4Si_1" arrivalPos="129.20" arrivalSpeed="12.17" duration="105.00" routeLength="931.71" waitingTime="0.00" waitingCount="0" stopTime="0.00" timeLoss="43.06" rerouteNo="1" devices="tripinfo_bus5 routing_bus5" vType="my_bus" speedFactor="1.00" vaporized=""/>
    <tripinfo id="bus7" depart="70.00" departLane="6Si_0" departPos="12.10" departSpeed="0.00" departDelay="0.00" arrival="160.00" arrivalLane="5Eo_0" arrivalPos="239.60" arrivalSpeed="13.49" duration="90.00" routeLength="884.53" waitingTime="5.00" waitingCount="1" stopTime="0.00" timeLoss="29.34" rerouteNo="1" devices="tripinfo_bus7 routing_bus7" vType="my_bus" speedFactor="1.00" vaporized=""/>
    <tripinfo id="bus11" depart="110.00" departLane="2Ni_0" departPos="12.10" departSpeed="0.00" departDelay="0.00" arrival="160.00" arrivalLane="1Ei_0" arrivalPos="129.20" arrivalSpeed="12.18" duration="50.00" routeLength="365.73" waitingTime="5.00" waitingCount="1" stopTime="0.00" timeLoss="21.21" rerouteNo="0" devices="tripinfo_bus11 routing_bus11" vType="my_bus" speedFactor="1.00" vaporized=""/>
    <tripinfo id="car7" depart="35.00" departLane="5Wi_0" departPos="5.10" departSpeed="0.00" departDelay="0.00" arrival="165.00" arrivalLane="4Wi_0" arrivalPos="129.20" arrivalSpeed="10.32" duration="130.00" routeLength="827.02" waitingTime="5.00" waitingCount="1" stopTime="0.00" timeLoss="62.85" rerouteNo="1" devices="tripinfo_car7 routing_car7" vType="my_car" speedFactor="0.86" vaporized="teleport"/>
    <tripinfo id="car19" depart="95.00" departLane="7Wi_0" departPos="5.10" departSpeed="0.00" departDelay="0.00" arrival="170.00" arrivalLane="5Eo_0" arrivalPos="239.60" arrivalSpeed="11.30" duration="75.00" routeLength="651.93" waitingTime="5.00" waitingCount="1" stopTime="0.00" timeLoss="28.99" rerouteNo="1" devices="tripinfo_car19 routing_car19" vType="my_car" speedFactor="1.01" vaporized=""/>
    <tripinfo id="car26" depart="130.00" departLane="2Ni_0" departPos="5.10" departSpeed="0.00" departDelay="0.00" arrival="180.00" arrivalLane="8Ni_1" arrivalPos="129.20" arrivalSpeed="15.34" duration="50.00" routeLength="513.70" waitingTime="5.00" waitingCount="1" stopTime="0.00" timeLoss="18.61" rerouteNo="1" devices="tripinfo_car26 routing_car26" vType="my_car" speedFactor="1.13" vaporized=""/>
    <tripinfo id="car10" depart="50.00" departLane="7Ni_0" departPos="5.10" departSpeed="0.00" departDelay="0.00" arrival="185.00" arrivalLane="6Ni_1" arrivalPos="129.20" arrivalSpeed="9.63" duration="135.00" routeLength="848.95" waitingTime="35.00" waitingCount="1" stopTime="0.00" timeLoss="76.77" rerouteNo="1" devices="tripinfo_car10 routing_car10" vType="my_car" speedFactor="1.05" vaporized=""/>
    <tripinfo id="car13" depart="65.00" departLane="0Wi_0" departPos="5.10" departSpeed="0.00" departDelay="0.00" arrival="185.00" arrivalLane="0Wo_0" arrivalPos="239.60" arrivalSpeed="9.30" duration="120.00" routeLength="1038.79" waitingTime="10.00" waitingCount="2" stopTime="0.00" timeLoss="37.41" rerouteNo="1" devices="tripinfo_car13 routing_car13" vType="my_car" speedFactor="0.93" vaporized=""/>
    <tripinfo id="car14" depart="70.00" departLane="7Si_0" departPos="5.10" departSpeed="0.00" departDelay="0.00" arrival="185.00" arrivalLane="5Ni_1" arrivalPos="129.20" arrivalSpeed="7.59" duration="115.00" routeLength="801.93" waitingTime="15.00" waitingCount="3" stopTime="0.00" timeLoss="49.53" rerouteNo="1" devices="tripinfo_car14 routing_car14" vType="my_car" speedFactor="0.88" vaporized=""/>
    <tripinfo id="bus9" depart="90.00" departLane="7Si_0" departPos="12.10" departSpeed="0.00" departDelay="0.00" arrival="185.00" arrivalLane="0Ei_0" arrivalPos="129.20" arrivalSpeed="13.56" duration="95.00" routeLength="676.05" waitingTime="10.00" waitingCount="2" stopTime="0.00" timeLoss="45.06" rerouteNo="1" devices="tripinfo_bus9 routing_bus9" vType="my_bus" speedFactor="1.00" vaporized=""/>
    <tripinfo id="bus12" depart="120.00" departLane="8Si_0" departPos="12.10" departSpeed="0.00" departDelay="0.00" arrival="185.00" arrivalLane="2No_0" arrivalPos="239.60" arrivalSpeed="12.91" duration="65.00" routeLength="746.30" waitingTime="5.00" waitingCount="1" stopTime="0.00" timeLoss="23.13" rerouteNo="1" devices="tripinfo_bus12 routing_bus12" vType="my_bus" speedFactor="1.00" vaporized=""/>
    <tripinfo id="car18" depart="90.00" departLane="7Ni_0" departPos="5.10" departSpeed="0.00" departDelay="0.00" arrival="190.00" arrivalLane="5Si_0" arrivalPos="129.20" arrivalSpeed="12.57" duration="100.00" routeLength="401.85" waitingTime="40.00" waitingCount="3" stopTime="0.00" timeLoss="74.31" rerouteNo="1" devices="tripinfo_car18 routing_car18" vType="my_car" speedFactor="1.02" vaporized=""/>
    <tripinfo id="bike8" depart="75.00" departLane="1Wi_0" departPos="1.70" departSpeed="0.00" departDelay="3.00" arrival="190.00" arrivalLane="5Ni_0" arrivalPos="129.20" arrivalSpeed="3.49" duration="115.00" routeLength="415.73" waitingTime="5.00" waitingCount="1" stopTime="0.00" timeLoss="36.73" rerouteNo="1" devices="tripinfo_bike8 routing_bike8" vType="my_bike" speedFactor="1.17" vaporized=""/>
    <tripinfo id="bus6" depart="60.00" departLane="0Ni_0" departPos="12.10" departSpeed="0.00" departDelay="0.00" arrival="195.00" arrivalLane="1No_0" arrivalPos="239.60" arrivalSpeed="11.57" duration="135.00" routeLength="635.00" waitingTime="35.00" waitingCount="3" stopTime="0.00" timeLoss="88.83" rerouteNo="1" devices="tripinfo_bus6 routing_bus6" vType="my_bus" speedFactor="1.00" vaporized=""/>
    <tripinfo id="car0" depart="0.00" departLane="5Wi_0" departPos="5.10" departSpeed="0.00" departDelay="0.00" arrival="200.00" arrivalLane="0Ei_0" arrivalPos="129.20" arrivalSpeed="13.58" duration="200.00" routeLength="571.20" waitingTime="110.00" waitingCount="7" stopTime="0.00" timeLoss="156.62" rerouteNo="1" devices="tripinfo_car0 routing_car0" vType="my_car" speedFactor="1.06" vaporized=""/>
    <tripinfo id="car3" depart="15.00" departLane="8Ei_0" departPos="5.10" departSpeed="0.00" departDelay="0.00" arrival="200.00" arrivalLane="0Wo_0" arrivalPos="239.60" arrivalSpeed="7.79" duration="185.00" routeLength="1081.68" waitingTime="30.00" waitingCount="1" stopTime="0.00" timeLoss="88.30" rerouteNo="1" devices="tripinfo_car3 routing_car3" vType="my_car" speedFactor="0.83" vaporized=""/>
    <tripinfo id="car6" depart="30.00" departLane="0Ei_0" departPos="5.10" departSpeed="0.00" departDelay="0.00" arrival="205.00" arrivalLane="1Wi_0" arrivalPos="129.20" arrivalSpeed="6.82" duration="175.00" routeLength="1106.06" waitingTime="35.00" waitingCount="3" stopTime="0.00" timeLoss="93.01" rerouteNo="1" devices="tripinfo_car6 routing_car6" vType="my_car" speedFactor="0.94" vaporized=""/>
    <tripinfo id="car22" depart="110.00" departLane="0Si_0" departPos="5.10" departSpeed="0.00" departDelay="0.00" arrival="205.00" arrivalLane="2Eo_0" arrivalPos="239.60" arrivalSpeed="6.81" duration="95.00" routeLength="672.73" waitingTime="5.00" waitingCount="1" stopTime="0.00" timeLoss="36.01" rerouteNo="1" devices="tripinfo_car22 routing_car22" vType="my_car" speedFactor="0.83" vaporized=""/>
    <tripinfo id="car28" depart="140.00" departLane="1Si_0" departPos="5.10" departSpeed="0.00" departDelay="0.00" arrival="205.00" arrivalLane="6So_0" arrivalPos="239.60" arrivalSpeed="14.61" duration="65.00" routeLength="812.25" waitingTime="0.00" waitingCount="0" stopTime="0.00" timeLoss="15.09" rerouteNo="1" devices="tripinfo_car28 routing_car28" vType="my_car" speedFactor="1.18" vaporized=""/>
    <tripinfo id="bus10" depart="100.00" departLane="7Si_0" departPos="12.10" departSpeed="0.00" departDelay="0.00" arrival="205.00" arrivalLane="6Wo_0" arrivalPos="239.60" arrivalSpeed="11.29" duration="105.00" routeLength="615.65" waitingTime="30.00" waitingCount="3" stopTime="0.00" timeLoss="63.66" rerouteNo="1" devices="tripinfo_bus10 routing_bus10" vType="my_bus" speedFactor="1.00" vaporized=""/>
    <tripinfo id="bus13" depart="130.00" departLane="0Wi_0" departPos="12.10" departSpeed="0.00" departDelay="0.00" arrival="205.00" arrivalLane="0Wo_1" arrivalPos="239.60" arrivalSpeed="13.05" duration="75.00" routeLength="1001.96" waitingTime="0.00" waitingCount="0" stopTime="0.00" timeLoss="23.86" rerouteNo="1" devices="tripinfo_bus13 routing_bus13" vType="my_bus" speedFactor="1.00" vaporized=""/>
    <tripinfo id="bus14" depart="140.00" departLane="8Ei_0" departPos="12.10" departSpeed="0.00" departDelay="0.00" arrival="205.00" arrivalLane="5Wi_0" arrivalPos="129.20" arrivalSpeed="10.28" duration="65.00" routeLength="644.93" waitingTime="10.00" waitingCount="1" stopTime="0.00" timeLoss="25.89" rerouteNo="1" devices="tripinfo_bus14 routing_bus14" vType="my_bus" speedFactor="1.00" vaporized="teleport"/>
    <tripinfo id="emergency4" depart="80.00" departLane="3Wi_0" departPos="6.60" departSpeed="0.00" departDelay="0.00" arrival="215.00" arrivalLane="0No_0" arrivalPos="239.60" arrivalSpeed="10.77" duration="135.00" routeLength="641.95" waitingTime="45.00" waitingCount="4" stopTime="0.00" timeLoss="90.43" rerouteNo="1" devices="tripinfo_emergency4 routing_emergency4" vType="my_emergency" speedFactor="1.00" vaporized="teleport"/>
    <tripinfo id="bus16" depart="160.00" departLane="5Ei_0" departPos="12.10" departSpeed="0.00" departDelay="0.00" arrival="220.00" arrivalLane="8So_0" arrivalPos="239.60" arrivalSpeed="12.71" duration="60.00" routeLength="617.10" waitingTime="0.00" waitingCount="0" stopTime="0.00" timeLoss="12.30" rerouteNo="1" devices="tripinfo_bus16 routing_bus16" vType="my_bus" speedFactor="1.00" vaporized=""/>
    <tripinfo id="car9" depart="45.00" departLane="7Ni_0" departPos="5.10" departSpeed="0.00" departDelay="0.00" arrival="225.00" arrivalLane="0Ei_1" arrivalPos="129.20" arrivalSpeed="11.44" duration="180.00" routeLength="835.89" waitingTime="50.00" waitingCount="6" stopTime="0.00" timeLoss="119.75" rerouteNo="1" devices="tripinfo_car9 routing_car9" vType="my_car" speedFactor="1.03" vaporized=""/>
    <tripinfo id="car35" depart="180.00" departLane="1Wi_0" departPos="5.10" departSpeed="0.00" departDelay="5.00" arrival="225.00" arrivalLane="8Ni_0" arrivalPos="129.20" arrivalSpeed="16.33" duration="45.00" routeLength="541.53" waitingTime="5.00" waitingCount="1" stopTime="0.00" timeLoss="16.30" rerouteNo="1" devices="tripinfo_car35 routing_car35" vType="my_car" speedFactor="1.18" vaporized=""/>
    <tripinfo id="bike4" depart="45.00" departLane="3Wi_0" departPos="1.70" departSpeed="0.00" departDelay="9.00" arrival="225.00" arrivalLane="0No_0" arrivalPos="239.60" arrivalSpeed="4.54" duration="180.00" routeLength="646.85" waitingTime="0.00" waitingCount="0" stopTime="0.00" timeLoss="47.91" rerouteNo="1" devices="tripinfo_bike4 routing_bike4" vType="my_bike" speedFactor="0.90" vaporized=""/>
    <tripinfo id="emergency3" depart="60.00" departLane="8Ei_0" departPos="6.60" departSpeed="0.00" departDelay="0.00" arrival="225.00" arrivalLane="0Wo_0" arrivalPos="239.60" arrivalSpeed="10.62" duration="165.00" routeLength="1059.38" waitingTime="45.00" waitingCount="3" stopTime="0.00" timeLoss="91.15" rerouteNo="1" devices="tripinfo_emergency3 routing_emergency3" vType="my_emergency" speedFactor="1.00" vaporized=""/>
    <tripinfo id="car36" depart="180.00" departLane="7Wi_0" departPos="5.10" departSpeed="0.00" departDelay="0.00" arrival="235.00" arrivalLane="2Wi_0" arrivalPos="129.20" arrivalSpeed="9.72" duration="55.00" routeLength="541.53" waitingTime="0.00" waitingCount="0" stopTime="0.00" timeLoss="23.66" rerouteNo="1" devices="tripinfo_car36 routing_car36" vType="my_car" speedFactor="1.10" vaporized=""/>
    <tripinfo id="bike2" depart="20.00" departLane="6Si_0" departPos="1.70" departSpeed="0.00" departDelay="2.00" arrival="235.00" arrivalLane="6Ei_0" arrivalPos="129.20" arrivalSpeed="4.71" duration="215.00" routeLength="802.59" waitingTime="5.00" waitingCount="1" stopTime="0.00" timeLoss="65.92" rerouteNo="1" devices="tripinfo_bike2 routing_bike2" vType="my_bike" speedFactor="1.09" vaporized=""/>
    <tripinfo id="car25" depart="125.00" departLane="3Ni_0" departPos="5.10" departSpeed="0.00" departDelay="0.00" arrival="240.00" arrivalLane="1Wi_1" arrivalPos="129.20" arrivalSpeed="7.39" duration="115.00" routeLength="957.51" waitingTime="5.00" waitingCount="1" stopTime="0.00" timeLoss="46.77" rerouteNo="1" devices="tripinfo_car25 routing_car25" vType="my_car" speedFactor="0.95" vaporized=""/>
    <tripinfo id="car27" depart="135.00" departLane="5Wi_0" departPos="5.10" departSpeed="0.00" departDelay="0.00" arrival="240.00" arrivalLane="5Ni_0" arrivalPos="129.20" arrivalSpeed="8.91" duration="105.00" routeLength="956.22" waitingTime="5.00" waitingCount="1" stopTime="0.00" timeLoss="32.87" rerouteNo="1" devices="tripinfo_car27 routing_car27" vType="my_car" speedFactor="0.93" vaporized=""/>
    <tripinfo id="car32" depart="160.00" departLane="7Si_0" departPos="5.10" departSpeed="0.00" departDelay="0.00" arrival="240.00" arrivalLane="6Wo_0" arrivalPos="239.60" arrivalSpeed="12.59" duration="80.00" routeLength="624.10" waitingTime="5.00" waitingCount="1" stopTime="0.00" timeLoss="31.08" rerouteNo="1" devices="tripinfo_car32 routing_car32" vType="my_car" speedFactor="0.99" vaporized=""/>
    <tripinfo id="car33" depart="165.00" departLane="2Ei_0" departPos="5.10" departSpeed="0.00" departDelay="0.00" arrival="240.00" arrivalLane="0No_0" arrivalPos="239.60" arrivalSpeed="11.14" duration="75.00" routeLength="783.13" waitingTime="0.00" waitingCount="0" stopTime="0.00" timeLoss="17.66" rerouteNo="1" devices="tripinfo_car33 routing_car33" vType="my_car" speedFactor="1.02" vaporized=""/>
    <tripinfo id="emergency5" depart="100.00" departLane="1Ni_0" departPos="6.60" departSpeed="0.00" departDelay="0.00" arrival="240.00" arrivalLane="4Si_1" arrivalPos="129.20" arrivalSpeed="10.14" duration="140.00" routeLength="937.21" waitingTime="30.00" waitingCount="3" stopTime="0.00" timeLoss="75.03" rerouteNo="1" devices="tripinfo_emergency5 routing_emergency5" vType="my_emergency" speedFactor="1.00" vaporized=""/>
    <tripinfo id="emergency7" depart="140.00" departLane="6Si_0" departPos="6.60" departSpeed="0.00" departDelay="0.00" arrival="240.00" arrivalLane="5Eo_0" arrivalPos="239.60" arrivalSpeed="12.00" duration="100.00" routeLength="888.58" waitingTime="10.00" waitingCount="1" stopTime="0.00" timeLoss="42.17" rerouteNo="1" devices="tripinfo_emergency7 routing_emergency7" vType="my_emergency" speedFactor="1.00" vaporized=""/>
    <tripinfo id="car15" depart="75.00" departLane="7Ni_0" departPos="5.10" departSpeed="0.00" departDelay="0.00" arrival="245.00" arrivalLane="6So_1" arrivalPos="239.60" arrivalSpeed="6.81" duration="170.00" routeLength="521.28" waitingTime="100.00" waitingCount="1" stopTime="0.00" timeLoss="127.89" rerouteNo="1" devices="tripinfo_car15 routing_car15" vType="my_car" speedFactor="0.94" vaporized=""/>
    <tripinfo id="car23" depart="115.00" departLane="0Wi_0" departPos="5.10" departSpeed="0.00" departDelay="0.00" arrival="250.00" arrivalLane="2Si_0" arrivalPos="129.20" arrivalSpeed="8.09" duration="135.00" routeLength="781.13" waitingTime="15.00" waitingCount="3" stopTime="0.00" timeLoss="69.19" rerouteNo="1" devices="tripinfo_car23 routing_car23" vType="my_car" speedFactor="0.87" vaporized=""/>
    <tripinfo id="bus15" depart="150.00" departLane="7Si_0" departPos="12.10" departSpeed="0.00" departDelay="0.00" arrival="250.00" arrivalLane="6Wo_0" arrivalPos="239.60" arrivalSpeed="12.01" duration="100.00" routeLength="636.45" waitingTime="15.00" waitingCount="2" stopTime="0.00" timeLoss="53.99" rerouteNo="1" devices="tripinfo_bus15 routing_bus15" vType="my_bus" speedFactor="1.00" vaporized=""/>
    <tripinfo id="car44" depart="220.00" departLane="0Wi_0" departPos="5.10" departSpeed="0.00" departDelay="0.00" arrival="250.00" arrivalLane="0No_1" arrivalPos="239.60" arrivalSpeed="13.02" duration="30.00" routeLength="474.10" waitingTime="0.00" waitingCount="0" stopTime="0.00" timeLoss="6.11" rerouteNo="0" devices="tripinfo_car44 routing_car44" vType="my_car" speedFactor="1.04" vaporized=""/>
    <tripinfo id="car40" depart="200.00" departLane="5Ei_0" departPos="5.10" departSpeed="0.00" departDelay="0.00" arrival="255.00" arrivalLane="2No_0" arrivalPos="239.60" arrivalSpeed="10.04" duration="55.00" routeLength="633.13" waitingTime="0.00" waitingCount="0" stopTime="0.00" timeLoss="12.49" rerouteNo="1" devices="tripinfo_car40 routing_car40" vType="my_car" speedFactor="1.09" vaporized=""/>
    <tripinfo id="bus19" depart="195.00" departLane="8Ei_0" departPos="12.10" departSpeed="0.00" departDelay="5.00" arrival="255.00" arrivalLane="5Eo_0" arrivalPos="239.60" arrivalSpeed="12.43" duration="60.00" routeLength="605.33" waitingTime="0.00" waitingCount="0" stopTime="0.00" timeLoss="13.80" rerouteNo="1" devices="tripinfo_bus19 routing_bus19" vType="my_bus" speedFactor="1.00" vaporized=""/>
    <tripinfo id="emergency6" depart="120.00" departLane="0Ni_0" departPos="6.60" departSpeed="0.00" departDelay="0.00" arrival="255.00" arrivalLane="1No_0" arrivalPos="239.60" arrivalSpeed="11.48" duration="135.00" routeLength="621.15" waitingTime="35.00" waitingCount="3" stopTime="0.00" timeLoss="87.72" rerouteNo="1" devices="tripinfo_emergency6 routing_emergency6" vType="my_emergency" speedFactor="1.00" vaporized=""/>
    <tripinfo id="car37" depart="185.00" departLane="5Wi_0" departPos="5.10" departSpeed="0.00" departDelay="0.00" arrival="260.00" arrivalLane="3Si_0" arrivalPos="129.20" arrivalSpeed="10.24" duration="75.00" routeLength="670.73" waitingTime="5.00" waitingCount="1" stopTime="0.00" timeLoss="26.83" rerouteNo="1" devices="tripinfo_car37 routing_car37" vType="my_car" speedFactor="0.90" vaporized=""/>
    <tripinfo id="car42" depart="210.00" departLane="3Si_0" departPos="5.10" departSpeed="0.00" departDelay="0.00" arrival="260.00" arrivalLane="1Wi_0" arrivalPos="129.20" arrivalSpeed="10.58" duration="50.00" routeLength="412.33" waitingTime="5.00" waitingCount="1" stopTime="0.00" timeLoss="17.94" rerouteNo="1" devices="tripinfo_car42 routing_car42" vType="my_car" speedFactor="1.04" vaporized=""/>
    <tripinfo id="bike15" depart="135.00" departLane="7Ni_0" departPos="1.70" departSpeed="0.00" departDelay="0.00" arrival="260.00" arrivalLane="6So_0" arrivalPos="239.60" arrivalSpeed="3.75" duration="125.00" routeLength="524.68" waitingTime="0.00" waitingCount="0" stopTime="0.00" timeLoss="26.63" rerouteNo="1" devices="tripinfo_bike15 routing_bike15" vType="my_bike" speedFactor="1.02" vaporized=""/>
    <tripinfo id="emergency11" depart="220.00" departLane="2Ni_0" departPos="6.60" departSpeed="0.00" departDelay="0.00" arrival="260.00" arrivalLane="1Ei_0" arrivalPos="129.20" arrivalSpeed="11.69" duration="40.00" routeLength="371.23" waitingTime="5.00" waitingCount="1" stopTime="0.00" timeLoss="12.41" rerouteNo="0" devices="tripinfo_emergency11 routing_emergency11" vType="my_emergency" speedFactor="1.00" vaporized=""/>
    <tripinfo id="bike16" depart="145.00" departLane="4Wi_0" departPos="1.70" departSpeed="0.00" departDelay="1.00" arrival="265.00" arrivalLane="8Wi_0" arrivalPos="129.20" arrivalSpeed="4.64" duration="120.00" routeLength="394.93" waitingTime="5.00" waitingCount="1" stopTime="0.00" timeLoss="44.04" rerouteNo="1" devices="tripinfo_bike16 routing_bike16" vType="my_bike" speedFactor="0.97" vaporized=""/>
    <tripinfo id="bike17" depart="155.00" departLane="3Ni_0" departPos="1.70" departSpeed="0.00" departDelay="2.00" arrival="265.00" arrivalLane="4Wi_0" arrivalPos="129.20" arrivalSpeed="3.22" duration="110.00" routeLength="256.70" waitingTime="30.00" waitingCount="3" stopTime="0.00" timeLoss="62.50" rerouteNo="0" devices="tripinfo_bike17 routing_bike17" vType="my_bike" speedFactor="1.08" vaporized=""/>
    <tripinfo id="emergency10" depart="200.00" departLane="7Si_0" departPos="6.60" departSpeed="0.00" departDelay="0.00" arrival="270.00" arrivalLane="6Wo_0" arrivalPos="239.60" arrivalSpeed="13.42" duration="70.00" routeLength="622.60" waitingTime="5.00" waitingCount="1" stopTime="0.00" timeLoss="24.19" rerouteNo="1" devices="tripinfo_emergency10 routing_emergency10" vType="my_emergency" speedFactor="1.00" vaporized=""/>
    <tripinfo id="car39" depart="195.00" departLane="2Ni_0" departPos="5.10" departSpeed="0.00" departDelay="0.00" arrival="275.00" arrivalLane="2Eo_1" arrivalPos="239.60" arrivalSpeed="9.48" duration="80.00" routeLength="493.45" waitingTime="25.00" waitingCount="1" stopTime="0.00" timeLoss="42.28" rerouteNo="0" devices="tripinfo_car39 routing_car39" vType="my_car" speedFactor="0.96" vaporized=""/>