<?xml version="1.0" encoding="UTF-8"?>

<!-- generated on 2026-04-09T21:35:16.504984+05:30 by Eclipse SUMO sumo 1.25.0
<sumoConfiguration xmlns:xsi="http://www.w3.org/2001/XMLSchema-instance" xsi:noNamespaceSchemaLocation="http://sumo.dlr.de/xsd/sumoConfiguration.xsd">

    <input>
        <net-file value="./env/3x3_priority/3x3Grid2lanes.net.xml"/>
        <route-files value="env/3x3_priority/vtypes.add.xml,env/3x3_priority/cars.rou.xml,env/3x3_priority/buses.rou.xml,env/3x3_priority/bikes.rou.xml,env/3x3_priority/ambulance.rou.xml"/>
    </input>

    <output>
        <tripinfo-output value="baseline_tripinfo.xml"/>
    </output>

    <time>
        <step-length value="5"/>
    </time>

    <report>
        <no-warnings value="true"/>
    </report>

    <traci_server>
        <remote-port value="34911"/>
    </traci_server>

</sumoConfiguration>
-->

<tripinfos xmlns:xsi="http://www.w3.org/2001/XMLSchema-instance" xsi:noNamespaceSchemaLocation="http://sumo.dlr.de/xsd/tripinfo_file.xsd">
    <tripinfo id="bus2" depart="20.00" departLane="6Wi_0" departPos="12.10" departSpeed="0.00" departDelay="0.00" arrival="65.00" arrivalLane="6So_0" arrivalPos="241.95" arrivalSpeed="13.83" duration="45.00" routeLength="476.80" waitingTime="0.00" waitingCount="0" stopTime="0.00" timeLoss="8.00" rerouteNo="0" devices="tripinfo_bus2 routing_bus2" vType="my_bus" speedFactor="1.00" vaporized=""/>
    <tripinfo id="bus1" depart="10.00" departLane="2Ei_0" departPos="12.10" departSpeed="0.00" departDelay="0.00" arrival="70.00" arrivalLane="1No_0" arrivalPos="241.95" arrivalSpeed="11.88" duration="60.00" routeLength="626.80" waitingTime="0.00" waitingCount="0" stopTime="0.00" timeLoss="11.26" rerouteNo="1" devices="tripinfo_bus1 routing_bus1" vType="my_bus" speedFactor="1.00" vaporized=""/>
    <tripinfo id="car4" depart="20.00" departLane="3Wi_0" departPos="5.10" departSpeed="0.00" departDelay="0.00" arrival="90.00" arrivalLane="0No_0" arrivalPos="241.95" arrivalSpeed="9.84" duration="70.00" routeLength="644.44" waitingTime="0.00" waitingCount="0" stopTime="0.00" timeLoss="25.44" rerouteNo="1" devices="tripinfo_car4 routing_car4" vType="my_car" speedFactor="1.05" vaporized=""/>
    <tripinfo id="car1" depart="5.00" departLane="2Ni_0" departPos="5.10" departSpeed="0.00" departDelay="0.00" arrival="95.00" arrivalLane="2Eo_0" arrivalPos="241.95" arrivalSpeed="9.82" duration="90.00" routeLength="494.44" waitingTime="25.00" waitingCount="2" stopTime="0.00" timeLoss="48.76" rerouteNo="0" devices="tripinfo_car1 routing_car1" vType="my_car" speedFactor="0.94" vaporized=""/>
    <tripinfo id="emergency0" depart="5.00" departLane="6Si_0" departPos="6.60" departSpeed="0.00" departDelay="5.00" arrival="95.00" arrivalLane="0No_0" arrivalPos="241.95" arrivalSpeed="12.28" duration="90.00" routeLength="777.30" waitingTime="20.00" waitingCount="3" stopTime="0.00" timeLoss="46.31" rerouteNo="1" devices="tripinfo_emergency0 routing_emergency0" vType="my_emergency" speedFactor="1.00" vaporized=""/>
    <tripinfo id="car0" depart="0.00" departLane="5Wi_0" departPos="5.10" departSpeed="0.00" departDelay="0.00" arrival="100.00" arrivalLane="0Ei_1" arrivalPos="133.90" arrivalSpeed="10.47" duration="100.00" routeLength="562.24" waitingTime="30.00" waitingCount="4" stopTime="0.00" timeLoss="66.16" rerouteNo="1" devices="tripinfo_car0 routing_car0" vType="my_car" speedFactor="1.06" vaporized=""/>
    <tripinfo id="car8" depart="40.00" departLane="1Wi_0" departPos="5.10" departSpeed="0.00" departDelay="0.00" arrival="100.00" arrivalLane="5Ni_0" arrivalPos="133.90" arrivalSpeed="12.21" duration="60.00" routeLength="417.70" waitingTime="10.00" waitingCount="2" stopTime="0.00" timeLoss="30.48" rerouteNo="1" devices="tripinfo_car8 routing_car8" vType="my_car" speedFactor="1.09" vaporized=""/>
    <tripinfo id="emergency2" depart="40.00" departLane="6Wi_0" departPos="6.60" departSpeed="0.00" departDelay="0.00" arrival="110.00" arrivalLane="6So_0" arrivalPos="241.95" arrivalSpeed="13.68" duration="70.00" routeLength="482.30" waitingTime="10.00" waitingCount="2" stopTime="0.00" timeLoss="34.12" rerouteNo="0" devices="tripinfo_emergency2 routing_emergency2" vType="my_emergency" speedFactor="1.00" vaporized=""/>
    <tripinfo id="emergency1" depart="20.00" departLane="2Ei_0" departPos="6.60" departSpeed="0.00" departDelay="0.00" arrival="115.00" arrivalLane="1No_0" arrivalPos="241.95" arrivalSpeed="9.64" duration="95.00" routeLength="632.30" waitingTime="30.00" waitingCount="1" stopTime="0.00" timeLoss="47.97" rerouteNo="1" devices="tripinfo_emergency1 routing_emergency1" vType="my_emergency" speedFactor="1.00" vaporized=""/>
    <tripinfo id="car5" depart="25.00" departLane="1Wi_0" departPos="5.10" departSpeed="0.00" departDelay="0.00" arrival="115.00" arrivalLane="4Si_0" arrivalPos="133.90" arrivalSpeed="10.55" duration="90.00" routeLength="845.50" waitingTime="0.00" waitingCount="0" stopTime="0.00" timeLoss="20.65" rerouteNo="1" devices="tripinfo_car5 routing_car5" vType="my_car" speedFactor="0.89" vaporized=""/>
    <tripinfo id="car2" depart="10.00" departLane="6Si_0" departPos="5.10" departSpeed="0.00" departDelay="0.00" arrival="120.00" arrivalLane="6Ei_0" arrivalPos="133.90" arrivalSpeed="13.54" duration="110.00" routeLength="782.45" waitingTime="25.00" waitingCount="3" stopTime="0.00" timeLoss="58.31" rerouteNo="1" devices="tripinfo_car2 routing_car2" vType="my_car" speedFactor="1.03" vaporized=""/>
    <tripinfo id="car16" depart="80.00" departLane="4Wi_0" departPos="5.10" departSpeed="0.00" departDelay="0.00" arrival="120.00" arrivalLane="8Wi_0" arrivalPos="133.90" arrivalSpeed="8.97" duration="40.00" routeLength="396.60" waitingTime="5.00" waitingCount="1" stopTime="0.00" timeLoss="15.88" rerouteNo="1" devices="tripinfo_car16 routing_car16" vType="my_car" speedFactor="0.94" vaporized=""/>
    <tripinfo id="bus3" depart="30.00" departLane="8Ei_0" departPos="12.10" departSpeed="0.00" departDelay="0.00" arrival="125.00" arrivalLane="0Wo_0" arrivalPos="241.95" arrivalSpeed="10.96" duration="95.00" routeLength="1067.11" waitingTime="0.00" waitingCount="0" stopTime="0.00" timeLoss="18.97" rerouteNo="1" devices="tripinfo_bus3 routing_bus3" vType="my_bus" speedFactor="1.00" vaporized=""/>
    <tripinfo id="bus4" depart="40.00" departLane="3Wi_0" departPos="12.10" departSpeed="0.00" departDelay="0.00" arrival="130.00" arrivalLane="0No_0" arrivalPos="241.95" arrivalSpeed="12.30" duration="90.00" routeLength="621.34" waitingTime="10.00" waitingCount="1" stopTime="0.00" timeLoss="45.27" rerouteNo="1" devices="tripinfo_bus4 routing_bus4" vType="my_bus" speedFactor="1.00" vaporized=""/>
    <tripinfo id="bike1" depart="10.00" departLane="2Ni_0" departPos="1.70" departSpeed="0.00" departDelay="1.00" arrival="145.00" arrivalLane="2Eo_0" arrivalPos="241.95" arrivalSpeed="5.12" duration="135.00" routeLength="497.84" waitingTime="0.00" waitingCount="0" stopTime="0.00" timeLoss="40.42" rerouteNo="0" devices="tripinfo_bike1 routing_bike1" vType="my_bike" speedFactor="1.08" vaporized=""/>
    <tripinfo id="car7" depart="35.00" departLane="5Wi_0" departPos="5.10" departSpeed="0.00" departDelay="0.00" arrival="145.00" arrivalLane="4Wi_0" arrivalPos="133.90" arrivalSpeed="10.09" duration="110.00" routeLength="829.40" waitingTime="0.00" waitingCount="0" stopTime="0.00" timeLoss="38.08" rerouteNo="1" devices="tripinfo_car7 routing_car7" vType="my_car" speedFactor="0.86" vaporized=""/>
    <tripinfo id="car11" depart="55.00" departLane="3Ei_0" departPos="5.10" departSpeed="0.00" departDelay="0.00" arrival="145.00" arrivalLane="1No_1" arrivalPos="241.95" arrivalSpeed="14.73" duration="90.00" routeLength="659.19" waitingTime="15.00" waitingCount="2" stopTime="0.00" timeLoss="44.02" rerouteNo="1" devices="tripinfo_car11 routing_car11" vType="my_car" speedFactor="1.12" vaporized=""/>
    <tripinfo id="bus11" depart="110.00" departLane="2Ni_0" departPos="12.10" departSpeed="0.00" departDelay="0.00" arrival="145.00" arrivalLane="1Ei_0" arrivalPos="133.90" arrivalSpeed="12.15" duration="35.00" routeLength="368.75" waitingTime="0.00" waitingCount="0" stopTime="0.00" timeLoss="9.32" rerouteNo="0" devices="tripinfo_bus11 routing_bus11" vType="my_bus" speedFactor="1.00" vaporized="teleport"/>
    <tripinfo id="emergency4" depart="80.00" departLane="3Wi_0" departPos="6.60" departSpeed="0.00" departDelay="0.00" arrival="150.00" arrivalLane="0No_1" arrivalPos="241.95" arrivalSpeed="9.32" duration="70.00" routeLength="627.30" waitingTime="15.00" waitingCount="2" stopTime="0.00" timeLoss="29.26" rerouteNo="1" devices="tripinfo_emergency4 routing_emergency4" vType="my_emergency" speedFactor="1.00" vaporized=""/>
    <tripinfo id="car17" depart="85.00" departLane="3Ni_0" departPos="5.10" departSpeed="0.00" departDelay="0.00" arrival="150.00" arrivalLane="4Wi_1" arrivalPos="133.90" arrivalSpeed="1.62" duration="65.00" routeLength="278.34" waitingTime="15.00" waitingCount="2" stopTime="0.00" timeLoss="48.18" rerouteNo="0" devices="tripinfo_car17 routing_car17" vType="my_car" speedFactor="1.16" vaporized="teleport"/>
    <tripinfo id="bus0" depart="0.00" departLane="6Si_0" departPos="12.10" departSpeed="0.00" departDelay="0.00" arrival="155.00" arrivalLane="0No_0" arrivalPos="241.95" arrivalSpeed="12.52" duration="155.00" routeLength="787.90" waitingTime="50.00" waitingCount="3" stopTime="0.00" timeLoss="93.92" rerouteNo="1" devices="tripinfo_bus0 routing_bus0" vType="my_bus" speedFactor="1.00" vaporized=""/>
    <tripinfo id="bus9" depart="90.00" departLane="7Si_0" departPos="12.10" departSpeed="0.00" departDelay="0.00" arrival="155.00" arrivalLane="0Ei_1" arrivalPos="133.90" arrivalSpeed="11.62" duration="65.00" routeLength="663.29" waitingTime="0.00" waitingCount="0" stopTime="0.00" timeLoss="16.95" rerouteNo="1" devices="tripinfo_bus9 routing_bus9" vType="my_bus" speedFactor="1.00" vaporized=""/>
    <tripinfo id="car19" depart="95.00" departLane="7Wi_0" departPos="5.10" departSpeed="0.00" departDelay="0.00" arrival="160.00" arrivalLane="5Eo_0" arrivalPos="241.95" arrivalSpeed="13.16" duration="65.00" routeLength="659.65" waitingTime="0.00" waitingCount="0" stopTime="0.00" timeLoss="18.25" rerouteNo="1" devices="tripinfo_car19 routing_car19" vType="my_car" speedFactor="1.01" vaporized=""/>
    <tripinfo id="bus5" depart="50.00" departLane="1Ni_0" departPos="12.10" departSpeed="0.00" departDelay="0.00" arrival="165.00" arrivalLane="4Si_0" arrivalPos="133.90" arrivalSpeed="11.17" duration="115.00" routeLength="946.09" waitingTime="15.00" waitingCount="2" stopTime="0.00" timeLoss="45.57" rerouteNo="1" devices="tripinfo_bus5 routing_bus5" vType="my_bus" speedFactor="1.00" vaporized=""/>
    <tripinfo id="bus8" depart="80.00" departLane="1Ni_0" departPos="12.10" departSpeed="0.00" departDelay="0.00" arrival="165.00" arrivalLane="5Ni_0" arrivalPos="133.90" arrivalSpeed="13.09" duration="85.00" routeLength="518.29" waitingTime="15.00" waitingCount="2" stopTime="0.00" timeLoss="53.62" rerouteNo="1" devices="tripinfo_bus8 routing_bus8" vType="my_bus" speedFactor="1.00" vaporized="teleport"/>
    <tripinfo id="car13" depart="65.00" departLane="0Wi_0" departPos="5.10" departSpeed="0.00" departDelay="0.00" arrival="170.00" arrivalLane="0Wo_0" arrivalPos="241.95" arrivalSpeed="10.84" duration="105.00" routeLength="1051.14" waitingTime="0.00" waitingCount="0" stopTime="0.00" timeLoss="32.79" rerouteNo="1" devices="tripinfo_car13 routing_car13" vType="my_car" speedFactor="0.93" vaporized=""/>
    <tripinfo id="car12" depart="60.00" departLane="8Si_0" departPos="5.10" departSpeed="0.00" departDelay="0.00" arrival="175.00" arrivalLane="3Ei_1" arrivalPos="133.90" arrivalSpeed="13.48" duration="115.00" routeLength="686.39" waitingTime="30.00" waitingCount="2" stopTime="0.00" timeLoss="63.09" rerouteNo="1" devices="tripinfo_car12 routing_car12" vType="my_car" speedFactor="0.99" vaporized=""/>
    <tripinfo id="car18" depart="90.00" departLane="7Ni_0" departPos="5.10" departSpeed="0.00" departDelay="0.00" arrival="175.00" arrivalLane="5Si_1" arrivalPos="133.90" arrivalSpeed="12.21" duration="85.00" routeLength="412.24" waitingTime="35.00" waitingCount="2" stopTime="0.00" timeLoss="60.56" rerouteNo="1" devices="tripinfo_car18 routing_car18" vType="my_car" speedFactor="1.02" vaporized=""/>
    <tripinfo id="bike8" depart="75.00" departLane="1Wi_0" departPos="1.70" departSpeed="0.00" departDelay="3.00" arrival="185.00" arrivalLane="5Ni_0" arrivalPos="133.90" arrivalSpeed="4.40" duration="110.00" routeLength="421.10" waitingTime="5.00" waitingCount="1" stopTime="0.00" timeLoss="30.67" rerouteNo="1" devices="tripinfo_bike8 routing_bike8" vType="my_bike" speedFactor="1.17" vaporized=""/>
    <tripinfo id="bike0" depart="5.00" departLane="5Wi_0" departPos="1.70" departSpeed="0.00" departDelay="5.00" arrival="195.00" arrivalLane="0Ei_0" arrivalPos="133.90" arrivalSpeed="2.84" duration="190.00" routeLength="581.28" waitingTime="30.00" waitingCount="3" stopTime="0.00" timeLoss="82.75" rerouteNo="1" devices="tripinfo_bike0 routing_bike0" vType="my_bike" speedFactor="1.01" vaporized=""/>
    <tripinfo id="bus6" depart="60.00" departLane="0Ni_0" departPos="12.10" departSpeed="0.00" departDelay="0.00" arrival="195.00" arrivalLane="1No_0" arrivalPos="241.95" arrivalSpeed="11.94" duration="135.00" routeLength="621.34" waitingTime="50.00" waitingCount="4" stopTime="0.00" timeLoss="91.00" rerouteNo="1" devices="tripinfo_bus6 routing_bus6" vType="my_bus" speedFactor="1.00" vaporized=""/>
    <tripinfo id="bus7" depart="70.00" departLane="6Si_0" departPos="12.10" departSpeed="0.00" departDelay="0.00" arrival="195.00" arrivalLane="5Eo_0" arrivalPos="241.95" arrivalSpeed="12.09" duration="125.00" routeLength="894.60" waitingTime="20.00" waitingCount="2" stopTime="0.00" timeLoss="67.36" rerouteNo="1" devices="tripinfo_bus7 routing_bus7" vType="my_bus" speedFactor="1.00" vaporized=""/>
    <tripinfo id="emergency3" depart="60.00" departLane="8Ei_0" departPos="6.60" departSpeed="0.00" departDelay="0.00" arrival="195.00" arrivalLane="0Wo_0" arrivalPos="241.95" arrivalSpeed="12.51" duration="135.00" routeLength="1065.74" waitingTime="20.00" waitingCount="2" stopTime="0.00" timeLoss="56.60" rerouteNo="1" devices="tripinfo_emergency3 routing_emergency3" vType="my_emergency" speedFactor="1.00" vaporized=""/>
    <tripinfo id="car9" depart="45.00" departLane="7Ni_0" departPos="5.10" departSpeed="0.00" departDelay="0.00" arrival="200.00" arrivalLane="0Ei_1" arrivalPos="133.90" arrivalSpeed="10.63" duration="155.00" routeLength="823.94" waitingTime="50.00" waitingCount="4" stopTime="0.00" timeLoss="102.88" rerouteNo="1" devices="tripinfo_car9 routing_car9" vType="my_car" speedFactor="1.03" vaporized=""/>
    <tripinfo id="car22" depart="110.00" departLane="0Si_0" departPos="5.10" departSpeed="0.00" departDelay="0.00" arrival="200.00" arrivalLane="2Eo_0" arrivalPos="241.95" arrivalSpeed="8.73" duration="90.00" routeLength="670.75" waitingTime="5.00" waitingCount="1" stopTime="0.00" timeLoss="30.18" rerouteNo="1" devices="tripinfo_car22 routing_car22" vType="my_car" speedFactor="0.83" vaporized=""/>
    <tripinfo id="emergency6" depart="120.00" departLane="0Ni_0" departPos="6.60" departSpeed="0.00" departDelay="0.00" arrival="205.00" arrivalLane="1No_1" arrivalPos="241.95" arrivalSpeed="7.67" duration="85.00" routeLength="626.84" waitingTime="15.00" waitingCount="1" stopTime="0.00" timeLoss="40.21" rerouteNo="1" devices="tripinfo_emergency6 routing_emergency6" vType="my_emergency" speedFactor="1.00" vaporized=""/>
    <tripinfo id="bus15" depart="150.00" departLane="7Si_0" departPos="12.10" departSpeed="0.00" departDelay="0.00" arrival="210.00" arrivalLane="6Wo_0" arrivalPos="241.95" arrivalSpeed="11.85" duration="60.00" routeLength="621.80" waitingTime="0.00" waitingCount="0" stopTime="0.00" timeLoss="13.05" rerouteNo="1" devices="tripinfo_bus15 routing_bus15" vType="my_bus" speedFactor="1.00" vaporized=""/>
    <tripinfo id="car6" depart="30.00" departLane="0Ei_0" departPos="5.10" departSpeed="0.00" departDelay="0.00" arrival="210.00" arrivalLane="1Wi_0" arrivalPos="133.90" arrivalSpeed="10.30" duration="180.00" routeLength="1112.84" waitingTime="55.00" waitingCount="6" stopTime="0.00" timeLoss="110.14" rerouteNo="1" devices="tripinfo_car6 routing_car6" vType="my_car" speedFactor="0.94" vaporized="teleport"/>
    <tripinfo id="car3" depart="15.00" departLane="8Ei_0" departPos="5.10" departSpeed="0.00" departDelay="0.00" arrival="215.00" arrivalLane="0Wo_0" arrivalPos="241.95" arrivalSpeed="5.54" duration="200.00" routeLength="1083.34" waitingTime="40.00" waitingCount="4" stopTime="0.00" timeLoss="105.54" rerouteNo="1" devices="tripinfo_car3 routing_car3" vType="my_car" speedFactor="0.83" vaporized=""/>
    <tripinfo id="car28" depart="140.00" departLane="1Si_0" departPos="5.10" departSpeed="0.00" departDelay="0.00" arrival="215.00" arrivalLane="6So_0" arrivalPos="241.95" arrivalSpeed="14.70" duration="75.00" routeLength="804.19" waitingTime="0.00" waitingCount="0" stopTime="0.00" timeLoss="28.14" rerouteNo="1" devices="tripinfo_car28 routing_car28" vType="my_car" speedFactor="1.18" vaporized=""/>
    <tripinfo id="car26" depart="130.00" departLane="2Ni_0" departPos="5.10" departSpeed="0.00" departDelay="0.00" arrival="215.00" arrivalLane="8Ni_0" arrivalPos="133.90" arrivalSpeed="13.31" duration="85.00" routeLength="536.85" waitingTime="30.00" waitingCount="2" stopTime="0.00" timeLoss="51.00" rerouteNo="1" devices="tripinfo_car26 routing_car26" vType="my_car" speedFactor="1.13" vaporized="teleport"/>
    <tripinfo id="bike17" depart="155.00" departLane="3Ni_0" departPos="1.70" departSpeed="0.00" departDelay="2.00" arrival="220.00" arrivalLane="4Wi_0" arrivalPos="133.90" arrivalSpeed="5.17" duration="65.00" routeLength="266.10" waitingTime="0.00" waitingCount="0" stopTime="0.00" timeLoss="13.94" rerouteNo="0" devices="tripinfo_bike17 routing_bike17" vType="my_bike" speedFactor="1.08" vaporized=""/>
    <tripinfo id="emergency5" depart="100.00" departLane="1Ni_0" departPos="6.60" departSpeed="0.00" departDelay="0.00" arrival="220.00" arrivalLane="4Si_1" arrivalPos="133.90" arrivalSpeed="12.52" duration="120.00" routeLength="914.85" waitingTime="10.00" waitingCount="1" stopTime="0.00" timeLoss="55.53" rerouteNo="1" devices="tripinfo_emergency5 routing_emergency5" vType="my_emergency" speedFactor="1.00" vaporized=""/>
    <tripinfo id="car14" depart="70.00" departLane="7Si_0" departPos="5.10" departSpeed="0.00" departDelay="0.00" arrival="220.00" arrivalLane="5Ni_1" arrivalPos="133.90" arrivalSpeed="10.65" duration="150.00" routeLength="809.65" waitingTime="40.00" waitingCount="4" stopTime="0.00" timeLoss="85.59" rerouteNo="1" devices="tripinfo_car14 routing_car14" vType="my_car" speedFactor="0.88" vaporized="teleport"/>
    <tripinfo id="car31" depart="155.00" departLane="5Ei_0" departPos="5.10" departSpeed="0.00" departDelay="0.00" arrival="220.00" arrivalLane="6Ei_1" arrivalPos="133.90" arrivalSpeed="10.31" duration="65.00" routeLength="659.19" waitingTime="0.00" waitingCount="0" stopTime="0.00" timeLoss="25.44" rerouteNo="1" devices="tripinfo_car31 routing_car31" vType="my_car" speedFactor="1.17" vaporized="teleport"/>
    <tripinfo id="car36" depart="180.00" departLane="7Wi_0" departPos="5.10" departSpeed="0.00" departDelay="0.00" arrival="225.00" arrivalLane="2Wi_0" arrivalPos="133.90" arrivalSpeed="12.63" duration="45.00" routeLength="551.60" waitingTime="0.00" waitingCount="0" stopTime="0.00" timeLoss="14.55" rerouteNo="1" devices="tripinfo_car36 routing_car36" vType="my_car" speedFactor="1.10" vaporized=""/>
    <tripinfo id="bus12" depart="120.00" departLane="8Si_0" departPos="12.10" departSpeed="0.00" departDelay="0.00" arrival="230.00" arrivalLane="2No_0" arrivalPos="241.95" arrivalSpeed="13.20" duration="110.00" routeLength="787.90" waitingTime="20.00" waitingCount="1" stopTime="0.00" timeLoss="50.96" rerouteNo="1" devices="tripinfo_bus12 routing_bus12" vType="my_bus" speedFactor="1.00" vaporized=""/>
    <tripinfo id="bike2" depart="20.00" departLane="6Si_0" departPos="1.70" departSpeed="0.00" departDelay="2.00" arrival="230.00" arrivalLane="6Ei_0" arrivalPos="133.90" arrivalSpeed="4.03" duration="210.00" routeLength="806.95" waitingTime="20.00" waitingCount="2" stopTime="0.00" timeLoss="63.36" rerouteNo="1" devices="tripinfo_bike2 routing_bike2" vType="my_bike" speedFactor="1.09" vaporized="teleport"/>
    <tripinfo id="bus17" depart="170.00" departLane="2Ni_0" departPos="12.10" departSpeed="0.00" departDelay="0.00" arrival="235.00" arrivalLane="5Eo_1" arrivalPos="241.95" arrivalSpeed="12.52" duration="65.00" routeLength="637.44" waitingTime="0.00" waitingCount="0" stopTime="0.00" timeLoss="15.87" rerouteNo="1" devices="tripinfo_bus17 routing_bus17" vType="my_bus" speedFactor="1.00" vaporized=""/>
    <tripinfo id="bus18" depart="180.00" departLane="7Si_0" departPos="12.10" departSpeed="0.00" departDelay="0.00" arrival="235.00" arrivalLane="6So_0" arrivalPos="241.95" arrivalSpeed="13.70" duration="55.00" routeLength="612.11" waitingTime="0.00" waitingCount="0" stopTime="0.00" timeLoss="12.99" rerouteNo="1" devices="tripinfo_bus18 routing_bus18" vType="my_bus" speedFactor="1.00" vaporized=""/>
    <tripinfo id="emergency8" depart="160.00" departLane="1Ni_0" departPos="6.60" departSpeed="0.00" departDelay="0.00" arrival="240.00" arrivalLane="5Ni_0" arrivalPos="133.90" arrivalSpeed="9.86" duration="80.00" routeLength="523.79" waitingTime="10.00" waitingCount="2" stopTime="0.00" timeLoss="42.09" rerouteNo="1" devices="tripinfo_emergency8 routing_emergency8" vType="my_emergency" speedFactor="1.00" vaporized=""/>
    <tripinfo id="car29" depart="145.00" departLane="1Ni_0" departPos="5.10" departSpeed="0.00" departDelay="0.00" arrival="240.00" arrivalLane="3Ni_1" arrivalPos="133.90" arrivalSpeed="12.64" duration="95.00" routeLength="525.29" waitingTime="45.00" waitingCount="2" stopTime="0.00" timeLoss="64.97" rerouteNo="1" devices="tripinfo_car29 routing_car29" vType="my_car" speedFactor="1.15" vaporized="teleport"/>
    <tripinfo id="car38" depart="190.00" departLane="8Ei_0" departPos="5.10" departSpeed="0.00" departDelay="0.00" arrival="245.00" arrivalLane="4Ei_1" arrivalPos="133.90" arrivalSpeed="10.87" duration="55.00" routeLength="509.65" waitingTime="0.00" waitingCount="0" stopTime="0.00" timeLoss="22.87" rerouteNo="1" devices="tripinfo_car38 routing_car38" vType="my_car" speedFactor="1.03" vaporized=""/>
    <tripinfo id="bus14" depart="140.00" departLane="8Ei_0" departPos="12.10" departSpeed="0.00" departDelay="0.00" arrival="245.00" arrivalLane="5Wi_0" arrivalPos="133.90" arrivalSpeed="13.04" duration="105.00" routeLength="652.65" waitingTime="35.00" waitingCount="1" stopTime="0.00" timeLoss="63.67" rerouteNo="1" devices="tripinfo_bus14 routing_bus14" vType="my_bus" speedFactor="1.00" vaporized=""/>
    <tripinfo id="bus10" depart="100.00" departLane="7Si_0" departPos="12.10" departSpeed="0.00" departDelay="0.00" arrival="250.00" arrivalLane="6Wo_0" arrivalPos="241.95" arrivalSpeed="13.24" duration="150.00" routeLength="621.34" waitingTime="65.00" waitingCount="2" stopTime="0.00" timeLoss="103.71" rerouteNo="1" devices="tripinfo_bus10 routing_bus10" vType="my_bus" speedFactor="1.00" vaporized=""/>
    <tripinfo id="car44" depart="220.00" departLane="0Wi_0" departPos="5.10" departSpeed="0.00" departDelay="0.00" arrival="250.00" arrivalLane="0No_1" arrivalPos="241.95" arrivalSpeed="10.93" duration="30.00" routeLength="478.80" waitingTime="0.00" waitingCount="0" stopTime="0.00" timeLoss="8.86" rerouteNo="0" devices="tripinfo_car44 routing_car44" vType="my_car" speedFactor="1.04" vaporized=""/>
    <tripinfo id="car32" depart="160.00" departLane="7Si_0" departPos="5.10" departSpeed="0.00" departDelay="0.00" arrival="255.00" arrivalLane="6Wo_0" arrivalPos="241.95" arrivalSpeed="13.43" duration="95.00" routeLength="628.80" waitingTime="15.00" waitingCount="2" stopTime="0.00" timeLoss="47.72" rerouteNo="1" devices="tripinfo_car32 routing_car32" vType="my_car" speedFactor="0.99" vaporized=""/>
    <tripinfo id="car23" depart="115.00" departLane="0Wi_0" departPos="5.10" departSpeed="0.00" departDelay="0.00" arrival="260.00" arrivalLane="2Si_1" arrivalPos="133.90" arrivalSpeed="8.08" duration="145.00" routeLength="809.19" waitingTime="40.00" waitingCount="2" stopTime="0.00" timeLoss="77.61" rerouteNo="1" devices="tripinfo_car23 routing_car23" vType="my_car" speedFactor="0.87" vaporized=""/>
    <tripinfo id="emergency11" depart="220.00" departLane="2Ni_0" departPos="6.60" departSpeed="0.00" departDelay="0.00" arrival="260.00" arrivalLane="1Ei_0" arrivalPos="133.90" arrivalSpeed="13.15" duration="40.00" routeLength="374.25" waitingTime="5.00" waitingCount="1" stopTime="0.00" timeLoss="19.13" rerouteNo="0" devices="tripinfo_emergency11 routing_emergency11" vType="my_emergency" speedFactor="1.00" vaporized="teleport"/>
    <tripinfo id="car15" depart="75.00" departLane="7Ni_0" departPos="5.10" departSpeed="0.00" departDelay="0.00" arrival="265.00" arrivalLane="6So_1" arrivalPos="241.95" arrivalSpeed="10.54" duration="190.00" routeLength="525.29" waitingTime="100.00" waitingCount="4" stopTime="0.00" timeLoss="147.68" rerouteNo="1" devices="tripinfo_car15 routing_car15" vType="my_car" speedFactor="0.94" vaporized=""/>
    <tripinfo id="car33" depart="165.00" departLane="2Ei_0" departPos="5.10" departSpeed="0.00" departDelay="0.00" arrival="265.00" arrivalLane="0No_1" arrivalPos="241.95" arrivalSpeed="11.75" duration="100.00" routeLength="783.80" waitingTime="10.00" waitingCount="2" stopTime="0.00" timeLoss="41.18" rerouteNo="1" devices="tripinfo_car33 routing_car33" vType="my_car" speedFactor="1.02" vaporized=""/>
    <tripinfo id="bus13" depart="130.00" departLane="0Wi_0" departPos="12.10" departSpeed="0.00" departDelay="0.00" arrival="270.00" arrivalLane="0Wo_0" arrivalPos="241.95" arrivalSpeed="13.51" duration="140.00" routeLength="1017.40" waitingTime="40.00" waitingCount="3" stopTime="0.00" timeLoss="80.69" rerouteNo="1" devices="tripinfo_bus13 routing_bus13" vType="my_bus" speedFactor="1.00" vaporized=""/>
    <tripinfo id="bike4" depart="45.00" departLane="3Wi_0" departPos="1.70" departSpeed="0.00" departDelay="9.00" arrival="270.00" arrivalLane="0No_0" arrivalPos="241.95" arrivalSpeed="4.84" duration="225.00" routeLength="647.84" waitingTime="20.00" waitingCount="3" stopTime="0.00" timeLoss="93.31" rerouteNo="1" devices="tripinfo_bike4 routing_bike4" vType="my_bike" speedFactor="0.90" vaporized=""/>
    <tripinfo id="car35" depart="175.00" departLane="1Wi_0" departPos="5.10" departSpeed="0.00" departDelay="0.00" arrival="275.00" arrivalLane="8Ni_0" arrivalPos="133.90" arrivalSpeed="12.49" duration="100.00" routeLength="567.70" waitingTime="35.00" waitingCount="4" stopTime="0.00" timeLoss="64.86" rerouteNo="1" devices="tripinfo_car35 routing_car35" vType="my_car" speedFactor="1.18" vaporized=""/>
    <tripinfo id="bike16" depart="145.00" departLane="4Wi_0" departPos="1.70" departSpeed="0.00" departDelay="1.00" arrival="275.00" arrivalLane="8Wi_0" arrivalPos="133.90" arrivalSpeed="3.53" duration="130.00" routeLength="405.00" waitingTime="20.00" waitingCount="2" stopTime="0.00" timeLoss="54.71" rerouteNo="1" devices="tripinfo_bike16 routing_bike16" vType="my_bike" speedFactor="0.97" vaporized=""/>
    <tripinfo id="emergency7" depart="140.00" departLane="6Si_0" departPos="6.60" departSpeed="0.00" departDelay="0.00" arrival="275.00" arrivalLane="5Eo_0" arrivalPos="241.95" arrivalSpeed="13.63" duration="135.00" routeLength="899.64" waitingTime="40.00" waitingCount="4" stopTime="0.00" timeLoss="72.84" rerouteNo="1" devices="tripinfo_emergency7 routing_emergency7" vType="my_emergency" speedFactor="1.00" vaporized=""/>
    <tripinfo id="car34" depart="170.00" departLane="2Wi_0" departPos="5.10" departSpeed="0.00" departDelay="0.00" arrival="280.00" arrivalLane="2No_1" arrivalPos="241.95" arrivalSpeed="9.02" duration="110.00" routeLength="386.39" waitingTime="60.00" waitingCount="4" stopTime="0.00" timeLoss="81.37" rerouteNo="0" devices="tripinfo_car34 routing_car34" vType="my_car" speedFactor="0.97" vaporized=""/>
    <tripinfo id="car40" depart="200.00" departLane="5Ei_0" departPos="5.10" departSpeed="0.00" departDelay="0.00" arrival="280.00" arrivalLane="2No_0" arrivalPos="241.95" arrivalSpeed="10.70" duration="80.00" routeLength="633.80" waitingTime="20.00" waitingCount="2" stopTime="0.00" timeLoss="36.84" rerouteNo="1" devices="tripinfo_car40 routing_car40" vType="my_car" speedFactor="1.09" vaporized=""/>
    <tripinfo id="bus16" depart="160.00" departLane="5Ei_0" departPos="12.10" departSpeed="0.00" departDelay="0.00" arrival="280.00" arrivalLane="8So_0" arrivalPos="241.95" arrivalSpeed="11.04" duration="120.00" routeLength="637.44" waitingTime="35.00" waitingCount="1" stopTime="0.00" timeLoss="72.21" rerouteNo="1" devices="tripinfo_bus16 routing_bus16" vType="my_bus" speedFactor="1.00" vaporized=""/>
    <tripinfo id="car27" depart="135.00" departLane="5Wi_0" departPos="5.10" departSpeed="0.00" departDelay="0.00" arrival="285.00" arrivalLane="5Ni_0" arrivalPos="133.90" arrivalSpeed="8.53" duration="150.00" routeLength="958.30" waitingTime="55.00" waitingCount="3" stopTime="0.00" timeLoss="85.67" rerouteNo="1" devices="tripinfo_car27 routing_car27" vType="my_car" speedFactor="0.93" vaporized=""/>
    <tripinfo id="bus19" depart="195.00" departLane="8Ei_0" departPos="12.10" departSpeed="0.00" departDelay="5.00" arrival="285.00" arrivalLane="5Eo_0" arrivalPos="241.95" arrivalSpeed="11.47" duration="90.00" routeLength="615.70" waitingTime="0.00" waitingCount="0" stopTime="0.00" timeLoss="41.77" rerouteNo="1" devices="tripinfo_bus19 routing_bus19" vType="my_bus" speedFactor="1.00" vaporized=""/>