<?xml version="1.0" encoding="UTF-8"?>

<!-- generated on 2026-04-09T21:35:01.046259+05:30 by Eclipse SUMO sumo 1.25.0
<sumoConfiguration xmlns:xsi="http://www.w3.org/2001/XMLSchema-instance" xsi:noNamespaceSchemaLocation="http://sumo.dlr.de/xsd/sumoConfiguration.xsd">

    <input>
        <net-file value="./env/3x3_priority/3x3Grid2lanes.net.xml"/>
        <route-files value="env/3x3_priority/vtypes.add.xml,env/3x3_priority/cars.rou.xml,env/3x3_priority/buses.rou.xml,env/3x3_priority/bikes.rou.xml,env/3x3_priority/ambulance.rou.xml"/>
    </input>

    <output>
        <tripinfo-output value="rl_tripinfo.xml"/>
    </output>

    <processing>
        <time-to-teleport value="-1"/>
        <waiting-time-memory value="1000"/>
        <max-depart-delay value="-1"/>
    </processing>

    <report>
        <no-warnings value="true"/>
    </report>

    <traci_server>
        <remote-port value="39223"/>
    </traci_server>

    <random_number>
        <random value="true"/>
    </random_number>

</sumoConfiguration>
-->

<tripinfos xmlns:xsi="http://www.w3.org/2001/XMLSchema-instance" xsi:noNamespaceSchemaLocation="http://sumo.dlr.de/xsd/tripinfo_file.xsd">
    <tripinfo id="car1" depart="5.00" departLane="2Ni_0" departPos="5.10" departSpeed="0.00" departDelay="0.00" arrival="43.00" arrivalLane="2Eo_1" arrivalPos="241.95" arrivalSpeed="14.72" duration="38.00" routeLength="494.44" waitingTime="0.00" waitingCount="0" stopTime="0.00" timeLoss="6.52" rerouteNo="0" devices="tripinfo_car1 routing_car1" vType="my_car" speedFactor="1.15" vaporized=""/>
    <tripinfo id="car0" depart="0.00" departLane="5Wi_0" departPos="5.10" departSpeed="0.00" departDelay="0.00" arrival="55.00" arrivalLane="0Ei_1" arrivalPos="133.90" arrivalSpeed="5.74" duration="55.00" routeLength="577.88" waitingTime="0.00" waitingCount="0" stopTime="0.00" timeLoss="11.67" rerouteNo="1" devices="tripinfo_car0 routing_car0" vType="my_car" speedFactor="0.96" vaporized=""/>
    <tripinfo id="bus2" depart="20.00" departLane="6Wi_0" departPos="12.10" departSpeed="0.00" departDelay="0.00" arrival="63.00" arrivalLane="6So_0" arrivalPos="241.95" arrivalSpeed="13.61" duration="43.00" routeLength="476.80" waitingTime="0.00" waitingCount="0" stopTime="0.00" timeLoss="7.73" rerouteNo="0" devices="tripinfo_bus2 routing_bus2" vType="my_bus" speedFactor="1.00" vaporized=""/>
    <tripinfo id="bus1" depart="10.00" departLane="2Ei_0" departPos="12.10" departSpeed="0.00" departDelay="0.00" arrival="64.00" arrivalLane="1No_0" arrivalPos="241.95" arrivalSpeed="13.61" duration="54.00" routeLength="626.80" waitingTime="0.00" waitingCount="0" stopTime="0.00" timeLoss="8.02" rerouteNo="1" devices="tripinfo_bus1 routing_bus1" vType="my_bus" speedFactor="1.00" vaporized=""/>
    <tripinfo id="bus0" depart="0.00" departLane="6Si_0" departPos="12.10" departSpeed="0.00" departDelay="0.00" arrival="66.00" arrivalLane="0No_0" arrivalPos="241.95" arrivalSpeed="13.38" duration="66.00" routeLength="787.90" waitingTime="0.00" waitingCount="0" stopTime="0.00" timeLoss="8.74" rerouteNo="1" devices="tripinfo_bus0 routing_bus0" vType="my_bus" speedFactor="1.00" vaporized=""/>
    <tripinfo id="emergency0" depart="4.00" departLane="6Si_0" departPos="6.60" departSpeed="0.00" departDelay="4.00" arrival="68.00" arrivalLane="0No_1" arrivalPos="241.95" arrivalSpeed="12.93" duration="64.00" routeLength="793.40" waitingTime="0.00" waitingCount="0" stopTime="0.00" timeLoss="6.76" rerouteNo="1" devices="tripinfo_emergency0 routing_emergency0" vType="my_emergency" speedFactor="1.00" vaporized=""/>
    <tripinfo id="emergency1" depart="20.00" departLane="2Ei_0" departPos="6.60" departSpeed="0.00" departDelay="0.00" arrival="72.00" arrivalLane="1No_0" arrivalPos="241.95" arrivalSpeed="12.73" duration="52.00" routeLength="632.30" waitingTime="0.00" waitingCount="0" stopTime="0.00" timeLoss="5.71" rerouteNo="1" devices="tripinfo_emergency1 routing_emergency1" vType="my_emergency" speedFactor="1.00" vaporized=""/>
    <tripinfo id="emergency2" depart="40.00" departLane="6Wi_0" departPos="6.60" departSpeed="0.00" departDelay="0.00" arrival="80.00" arrivalLane="6So_0" arrivalPos="241.95" arrivalSpeed="12.89" duration="40.00" routeLength="482.30" waitingTime="0.00" waitingCount="0" stopTime="0.00" timeLoss="4.80" rerouteNo="0" devices="tripinfo_emergency2 routing_emergency2" vType="my_emergency" speedFactor="1.00" vaporized=""/>
    <tripinfo id="car8" depart="40.00" departLane="1Wi_0" departPos="5.10" departSpeed="0.00" departDelay="0.00" arrival="85.00" arrivalLane="5Ni_0" arrivalPos="133.90" arrivalSpeed="12.69" duration="45.00" routeLength="417.70" waitingTime="6.00" waitingCount="1" stopTime="0.00" timeLoss="14.68" rerouteNo="1" devices="tripinfo_car8 routing_car8" vType="my_car" speedFactor="1.00" vaporized=""/>
    <tripinfo id="car4" depart="20.00" departLane="3Wi_0" departPos="5.10" departSpeed="0.00" departDelay="0.00" arrival="91.00" arrivalLane="0No_0" arrivalPos="241.95" arrivalSpeed="11.56" duration="71.00" routeLength="644.44" waitingTime="9.00" waitingCount="1" stopTime="0.00" timeLoss="19.08" rerouteNo="1" devices="tripinfo_car4 routing_car4" vType="my_car" speedFactor="0.91" vaporized=""/>
    <tripinfo id="bus4" depart="42.00" departLane="3Wi_0" departPos="12.10" departSpeed="0.00" departDelay="2.00" arrival="103.00" arrivalLane="0No_0" arrivalPos="241.95" arrivalSpeed="13.84" duration="61.00" routeLength="637.44" waitingTime="0.00" waitingCount="0" stopTime="0.00" timeLoss="14.43" rerouteNo="1" devices="tripinfo_bus4 routing_bus4" vType="my_bus" speedFactor="1.00" vaporized=""/>
    <tripinfo id="car3" depart="15.00" departLane="8Ei_0" departPos="5.10" departSpeed="0.00" departDelay="0.00" arrival="112.00" arrivalLane="0Wo_0" arrivalPos="241.95" arrivalSpeed="14.23" duration="97.00" routeLength="1083.34" waitingTime="3.00" waitingCount="1" stopTime="0.00" timeLoss="22.17" rerouteNo="1" devices="tripinfo_car3 routing_car3" vType="my_car" speedFactor="1.05" vaporized=""/>
    <tripinfo id="bike1" depart="9.00" departLane="2Ni_0" departPos="1.70" departSpeed="0.00" departDelay="0.00" arrival="114.00" arrivalLane="2Eo_0" arrivalPos="241.95" arrivalSpeed="5.03" duration="105.00" routeLength="497.84" waitingTime="1.00" waitingCount="1" stopTime="0.00" timeLoss="14.19" rerouteNo="0" devices="tripinfo_bike1 routing_bike1" vType="my_bike" speedFactor="1.05" vaporized=""/>
    <tripinfo id="car17" depart="87.00" departLane="3Ni_0" departPos="5.10" departSpeed="0.00" departDelay="2.00" arrival="114.00" arrivalLane="4Wi_1" arrivalPos="133.90" arrivalSpeed="11.89" duration="27.00" routeLength="278.34" waitingTime="0.00" waitingCount="0" stopTime="0.00" timeLoss="5.47" rerouteNo="0" devices="tripinfo_car17 routing_car17" vType="my_car" speedFactor="0.94" vaporized=""/>
    <tripinfo id="car16" depart="80.00" departLane="4Wi_0" departPos="5.10" departSpeed="0.00" departDelay="0.00" arrival="115.00" arrivalLane="8Wi_1" arrivalPos="133.90" arrivalSpeed="13.75" duration="35.00" routeLength="417.24" waitingTime="0.00" waitingCount="0" stopTime="0.00" timeLoss="6.27" rerouteNo="1" devices="tripinfo_car16 routing_car16" vType="my_car" speedFactor="1.08" vaporized=""/>
    <tripinfo id="car15" depart="75.00" departLane="7Ni_0" departPos="5.10" departSpeed="0.00" departDelay="0.00" arrival="119.00" arrivalLane="6So_1" arrivalPos="241.95" arrivalSpeed="12.83" duration="44.00" routeLength="525.29" waitingTime="0.00" waitingCount="0" stopTime="0.00" timeLoss="6.10" rerouteNo="1" devices="tripinfo_car15 routing_car15" vType="my_car" speedFactor="1.00" vaporized=""/>
    <tripinfo id="car9" depart="45.00" departLane="7Ni_0" departPos="5.10" departSpeed="0.00" departDelay="0.00" arrival="121.00" arrivalLane="0Ei_1" arrivalPos="133.90" arrivalSpeed="13.12" duration="76.00" routeLength="844.58" waitingTime="2.00" waitingCount="1" stopTime="0.00" timeLoss="15.18" rerouteNo="1" devices="tripinfo_car9 routing_car9" vType="my_car" speedFactor="1.01" vaporized=""/>
    <tripinfo id="car11" depart="55.00" departLane="3Ei_0" departPos="5.10" departSpeed="0.00" departDelay="0.00" arrival="123.00" arrivalLane="1No_1" arrivalPos="241.95" arrivalSpeed="13.73" duration="68.00" routeLength="664.19" waitingTime="6.00" waitingCount="1" stopTime="0.00" timeLoss="19.56" rerouteNo="1" devices="tripinfo_car11 routing_car11" vType="my_car" speedFactor="0.99" vaporized=""/>
    <tripinfo id="bus3" depart="33.00" departLane="8Ei_0" departPos="12.10" departSpeed="0.00" departDelay="3.00" arrival="124.00" arrivalLane="0Wo_0" arrivalPos="241.95" arrivalSpeed="13.41" duration="91.00" routeLength="1076.34" waitingTime="0.00" waitingCount="0" stopTime="0.00" timeLoss="12.64" rerouteNo="1" devices="tripinfo_bus3 routing_bus3" vType="my_bus" speedFactor="1.00" vaporized=""/>
    <tripinfo id="car2" depart="10.00" departLane="6Si_0" departPos="5.10" departSpeed="0.00" departDelay="0.00" arrival="125.00" arrivalLane="6Ei_1" arrivalPos="133.90" arrivalSpeed="14.26" duration="115.00" routeLength="803.55" waitingTime="27.00" waitingCount="1" stopTime="0.00" timeLoss="59.42" rerouteNo="1" devices="tripinfo_car2 routing_car2" vType="my_car" speedFactor="1.05" vaporized=""/>
    <tripinfo id="bike0" depart="1.00" departLane="5Wi_0" departPos="1.70" departSpeed="0.00" departDelay="1.00" arrival="128.00" arrivalLane="0Ei_0" arrivalPos="133.90" arrivalSpeed="4.91" duration="127.00" routeLength="581.28" waitingTime="1.00" waitingCount="1" stopTime="0.00" timeLoss="19.43" rerouteNo="1" devices="tripinfo_bike0 routing_bike0" vType="my_bike" speedFactor="0.97" vaporized=""/>
    <tripinfo id="bus6" depart="60.00" departLane="0Ni_0" departPos="12.10" departSpeed="0.00" departDelay="0.00" arrival="129.00" arrivalLane="1No_1" arrivalPos="241.95" arrivalSpeed="13.38" duration="69.00" routeLength="636.98" waitingTime="0.00" waitingCount="0" stopTime="0.00" timeLoss="23.10" rerouteNo="1" devices="tripinfo_bus6 routing_bus6" vType="my_bus" speedFactor="1.00" vaporized=""/>
    <tripinfo id="car5" depart="25.00" departLane="1Wi_0" departPos="5.10" departSpeed="0.00" departDelay="0.00" arrival="131.00" arrivalLane="4Si_0" arrivalPos="133.90" arrivalSpeed="11.55" duration="106.00" routeLength="845.50" waitingTime="28.00" waitingCount="1" stopTime="0.00" timeLoss="39.52" rerouteNo="1" devices="tripinfo_car5 routing_car5" vType="my_car" speedFactor="0.92" vaporized=""/>
    <tripinfo id="car18" depart="94.00" departLane="7Ni_0" departPos="5.10" departSpeed="0.00" departDelay="4.00" arrival="131.00" arrivalLane="5Si_1" arrivalPos="133.90" arrivalSpeed="13.07" duration="37.00" routeLength="427.88" waitingTime="0.00" waitingCount="0" stopTime="0.00" timeLoss="6.63" rerouteNo="1" devices="tripinfo_car18 routing_car18" vType="my_car" speedFactor="1.01" vaporized=""/>
    <tripinfo id="car7" depart="35.00" departLane="5Wi_0" departPos="5.10" departSpeed="0.00" departDelay="0.00" arrival="137.00" arrivalLane="4Wi_0" arrivalPos="133.90" arrivalSpeed="11.77" duration="102.00" routeLength="834.40" waitingTime="16.00" waitingCount="2" stopTime="0.00" timeLoss="41.65" rerouteNo="1" devices="tripinfo_car7 routing_car7" vType="my_car" speedFactor="1.01" vaporized=""/>
    <tripinfo id="car14" depart="70.00" departLane="7Si_0" departPos="5.10" departSpeed="0.00" departDelay="0.00" arrival="144.00" arrivalLane="5Ni_1" arrivalPos="133.90" arrivalSpeed="15.31" duration="74.00" routeLength="814.65" waitingTime="0.00" waitingCount="0" stopTime="0.00" timeLoss="21.43" rerouteNo="1" devices="tripinfo_car14 routing_car14" vType="my_car" speedFactor="1.12" vaporized=""/>
    <tripinfo id="car12" depart="60.00" departLane="8Si_0" departPos="5.10" departSpeed="0.00" departDelay="0.00" arrival="145.00" arrivalLane="3Ei_0" arrivalPos="133.90" arrivalSpeed="13.39" duration="85.00" routeLength="686.39" waitingTime="19.00" waitingCount="1" stopTime="0.00" timeLoss="34.56" rerouteNo="1" devices="tripinfo_car12 routing_car12" vType="my_car" speedFactor="0.99" vaporized=""/>
    <tripinfo id="emergency4" depart="80.00" departLane="3Wi_0" departPos="6.60" departSpeed="0.00" departDelay="0.00" arrival="145.00" arrivalLane="0No_1" arrivalPos="241.95" arrivalSpeed="13.85" duration="65.00" routeLength="642.94" waitingTime="8.00" waitingCount="1" stopTime="0.00" timeLoss="18.23" rerouteNo="1" devices="tripinfo_emergency4 routing_emergency4" vType="my_emergency" speedFactor="1.00" vaporized=""/>
    <tripinfo id="bus9" depart="90.00" departLane="7Si_0" departPos="12.10" departSpeed="0.00" departDelay="0.00" arrival="150.00" arrivalLane="0Ei_1" arrivalPos="133.90" arrivalSpeed="13.31" duration="60.00" routeLength="679.39" waitingTime="0.00" waitingCount="0" stopTime="0.00" timeLoss="10.50" rerouteNo="1" devices="tripinfo_bus9 routing_bus9" vType="my_bus" speedFactor="1.00" vaporized=""/>
    <tripinfo id="bus8" depart="80.00" departLane="1Ni_0" departPos="12.10" departSpeed="0.00" departDelay="0.00" arrival="151.00" arrivalLane="5Ni_1" arrivalPos="133.90" arrivalSpeed="13.41" duration="71.00" routeLength="518.29" waitingTime="3.00" waitingCount="1" stopTime="0.00" timeLoss="33.22" rerouteNo="1" devices="tripinfo_bus8 routing_bus8" vType="my_bus" speedFactor="1.00" vaporized=""/>
    <tripinfo id="bike8" depart="72.00" departLane="1Wi_0" departPos="1.70" departSpeed="0.00" departDelay="0.00" arrival="158.00" arrivalLane="5Ni_0" arrivalPos="133.90" arrivalSpeed="5.02" duration="86.00" routeLength="421.10" waitingTime="0.00" waitingCount="0" stopTime="0.00" timeLoss="6.52" rerouteNo="1" devices="tripinfo_bike8 routing_bike8" vType="my_bike" speedFactor="0.95" vaporized=""/>
    <tripinfo id="bus11" depart="110.00" departLane="2Ni_0" departPos="12.10" departSpeed="0.00" departDelay="0.00" arrival="159.00" arrivalLane="1Ei_0" arrivalPos="133.90" arrivalSpeed="13.75" duration="49.00" routeLength="368.75" waitingTime="5.00" waitingCount="1" stopTime="0.00" timeLoss="21.58" rerouteNo="0" devices="tripinfo_bus11 routing_bus11" vType="my_bus" speedFactor="1.00" vaporized=""/>
    <tripinfo id="car19" depart="95.00" departLane="7Wi_0" departPos="5.10" departSpeed="0.00" departDelay="0.00" arrival="162.00" arrivalLane="5Eo_0" arrivalPos="241.95" arrivalSpeed="14.17" duration="67.00" routeLength="675.29" waitingTime="6.00" waitingCount="1" stopTime="0.00" timeLoss="20.90" rerouteNo="1" devices="tripinfo_car19 routing_car19" vType="my_car" speedFactor="1.06" vaporized=""/>
    <tripinfo id="bus7" depart="70.00" departLane="6Si_0" departPos="12.10" departSpeed="0.00" departDelay="0.00" arrival="167.00" arrivalLane="5Eo_0" arrivalPos="241.95" arrivalSpeed="13.73" duration="97.00" routeLength="915.24" waitingTime="6.00" waitingCount="1" stopTime="0.00" timeLoss="30.67" rerouteNo="1" devices="tripinfo_bus7 routing_bus7" vType="my_bus" speedFactor="1.00" vaporized=""/>
    <tripinfo id="bus5" depart="50.00" departLane="1Ni_0" departPos="12.10" departSpeed="0.00" departDelay="0.00" arrival="169.00" arrivalLane="4Si_0" arrivalPos="133.90" arrivalSpeed="13.42" duration="119.00" routeLength="946.09" waitingTime="9.00" waitingCount="1" stopTime="0.00" timeLoss="50.37" rerouteNo="1" devices="tripinfo_bus5 routing_bus5" vType="my_bus" speedFactor="1.00" vaporized=""/>
    <tripinfo id="car10" depart="50.00" departLane="7Ni_0" departPos="5.10" departSpeed="0.00" departDelay="0.00" arrival="171.00" arrivalLane="6Ni_1" arrivalPos="133.90" arrivalSpeed="12.99" duration="121.00" routeLength="876.96" waitingTime="29.00" waitingCount="3" stopTime="0.00" timeLoss="57.08" rerouteNo="1" devices="tripinfo_car10 routing_car10" vType="my_car" speedFactor="1.00" vaporized=""/>
    <tripinfo id="bike4" depart="36.00" departLane="3Wi_0" departPos="1.70" departSpeed="0.00" departDelay="0.00" arrival="173.00" arrivalLane="0No_0" arrivalPos="241.95" arrivalSpeed="5.11" duration="137.00" routeLength="647.84" waitingTime="5.00" waitingCount="1" stopTime="0.00" timeLoss="19.18" rerouteNo="1" devices="tripinfo_bike4 routing_bike4" vType="my_bike" speedFactor="1.03" vaporized=""/>
    <tripinfo id="car6" depart="30.00" departLane="0Ei_0" departPos="5.10" departSpeed="0.00" departDelay="0.00" arrival="177.00" arrivalLane="1Wi_0" arrivalPos="133.90" arrivalSpeed="11.78" duration="147.00" routeLength="1133.48" waitingTime="8.00" waitingCount="2" stopTime="0.00" timeLoss="59.49" rerouteNo="1" devices="tripinfo_car6 routing_car6" vType="my_car" speedFactor="0.94" vaporized=""/>
    <tripinfo id="car13" depart="65.00" departLane="0Wi_0" departPos="5.10" departSpeed="0.00" departDelay="0.00" arrival="178.00" arrivalLane="0Wo_1" arrivalPos="241.95" arrivalSpeed="13.92" duration="113.00" routeLength="1061.14" waitingTime="10.00" waitingCount="2" stopTime="0.00" timeLoss="38.58" rerouteNo="1" devices="tripinfo_car13 routing_car13" vType="my_car" speedFactor="1.03" vaporized=""/>
    <tripinfo id="car22" depart="110.00" departLane="0Si_0" departPos="5.10" departSpeed="0.00" departDelay="0.00" arrival="178.00" arrivalLane="2Eo_0" arrivalPos="241.95" arrivalSpeed="11.71" duration="68.00" routeLength="675.75" waitingTime="2.00" waitingCount="1" stopTime="0.00" timeLoss="15.19" rerouteNo="1" devices="tripinfo_car22 routing_car22" vType="my_car" speedFactor="0.93" vaporized=""/>
    <tripinfo id="bus10" depart="100.00" departLane="7Si_0" departPos="12.10" departSpeed="0.00" departDelay="0.00" arrival="178.00" arrivalLane="6Wo_0" arrivalPos="241.95" arrivalSpeed="13.40" duration="78.00" routeLength="637.44" waitingTime="16.00" waitingCount="1" stopTime="0.00" timeLoss="31.86" rerouteNo="1" devices="tripinfo_bus10 routing_bus10" vType="my_bus" speedFactor="1.00" vaporized=""/>
    <tripinfo id="car24" depart="120.00" departLane="5Si_0" departPos="5.10" departSpeed="0.00" departDelay="0.00" arrival="187.00" arrivalLane="3Ni_1" arrivalPos="133.90" arrivalSpeed="12.88" duration="67.00" routeLength="727.88" waitingTime="0.00" waitingCount="0" stopTime="0.00" timeLoss="12.11" rerouteNo="1" devices="tripinfo_car24 routing_car24" vType="my_car" speedFactor="0.96" vaporized=""/>
    <tripinfo id="bus12" depart="120.00" departLane="8Si_0" departPos="12.10" departSpeed="0.00" departDelay="0.00" arrival="188.00" arrivalLane="2No_0" arrivalPos="241.95" arrivalSpeed="13.61" duration="68.00" routeLength="787.90" waitingTime="0.00" waitingCount="0" stopTime="0.00" timeLoss="10.31" rerouteNo="1" devices="tripinfo_bus12 routing_bus12" vType="my_bus" speedFactor="1.00" vaporized=""/>
    <tripinfo id="car21" depart="105.00" departLane="2Ei_0" departPos="5.10" departSpeed="0.00" departDelay="0.00" arrival="189.00" arrivalLane="2Si_1" arrivalPos="133.90" arrivalSpeed="13.52" duration="84.00" routeLength="835.47" waitingTime="3.00" waitingCount="2" stopTime="0.00" timeLoss="22.22" rerouteNo="1" devices="tripinfo_car21 routing_car21" vType="my_car" speedFactor="0.99" vaporized=""/>
    <tripinfo id="car29" depart="145.00" departLane="1Ni_0" departPos="5.10" departSpeed="0.00" departDelay="0.00" arrival="189.00" arrivalLane="3Ni_1" arrivalPos="133.90" arrivalSpeed="14.78" duration="44.00" routeLength="525.29" waitingTime="0.00" waitingCount="0" stopTime="0.00" timeLoss="11.77" rerouteNo="1" devices="tripinfo_car29 routing_car29" vType="my_car" speedFactor="1.19" vaporized=""/>
    <tripinfo id="bike2" depart="18.00" departLane="6Si_0" departPos="1.70" departSpeed="0.00" departDelay="0.00" arrival="189.00" arrivalLane="6Ei_0" arrivalPos="133.90" arrivalSpeed="5.07" duration="171.00" routeLength="806.95" waitingTime="7.00" waitingCount="1" stopTime="0.00" timeLoss="22.64" rerouteNo="1" devices="tripinfo_bike2 routing_bike2" vType="my_bike" speedFactor="0.98" vaporized=""/>
    <tripinfo id="car26" depart="130.00" departLane="2Ni_0" departPos="5.10" departSpeed="0.00" departDelay="0.00" arrival="199.00" arrivalLane="8Ni_1" arrivalPos="133.90" arrivalSpeed="10.39" duration="69.00" routeLength="536.85" waitingTime="5.00" waitingCount="2" stopTime="0.00" timeLoss="20.32" rerouteNo="1" devices="tripinfo_car26 routing_car26" vType="my_car" speedFactor="0.81" vaporized=""/>
    <tripinfo id="emergency3" depart="60.00" departLane="8Ei_0" departPos="6.60" departSpeed="0.00" departDelay="0.00" arrival="201.00" arrivalLane="0Wo_0" arrivalPos="241.95" arrivalSpeed="13.61" duration="141.00" routeLength="1081.84" waitingTime="34.00" waitingCount="3" stopTime="0.00" timeLoss="62.74" rerouteNo="1" devices="tripinfo_emergency3 routing_emergency3" vType="my_emergency" speedFactor="1.00" vaporized=""/>
    <tripinfo id="car23" depart="115.00" departLane="0Wi_0" departPos="5.10" departSpeed="0.00" departDelay="0.00" arrival="206.00" arrivalLane="2Si_1" arrivalPos="133.90" arrivalSpeed="13.31" duration="91.00" routeLength="824.83" waitingTime="6.00" waitingCount="3" stopTime="0.00" timeLoss="29.27" rerouteNo="1" devices="tripinfo_car23 routing_car23" vType="my_car" speedFactor="0.97" vaporized=""/>
    <tripinfo id="car34" depart="170.00" departLane="2Wi_0" departPos="5.10" departSpeed="0.00" departDelay="0.00" arrival="206.00" arrivalLane="2No_1" arrivalPos="241.95" arrivalSpeed="11.81" duration="36.00" routeLength="386.39" waitingTime="0.00" waitingCount="0" stopTime="0.00" timeLoss="5.91" rerouteNo="0" devices="tripinfo_car34 routing_car34" vType="my_car" speedFactor="0.94" vaporized=""/>
    <tripinfo id="car20" depart="100.00" departLane="6Ni_0" departPos="5.10" departSpeed="0.00" departDelay="0.00" arrival="209.00" arrivalLane="0No_0" arrivalPos="241.95" arrivalSpeed="13.50" duration="109.00" routeLength="974.37" waitingTime="5.00" waitingCount="2" stopTime="0.00" timeLoss="39.10" rerouteNo="1" devices="tripinfo_car20 routing_car20" vType="my_car" speedFactor="1.01" vaporized=""/>
    <tripinfo id="bike17" depart="153.00" departLane="3Ni_0" departPos="1.70" departSpeed="0.00" departDelay="0.00" arrival="210.00" arrivalLane="4Wi_0" arrivalPos="133.90" arrivalSpeed="5.16" duration="57.00" routeLength="281.74" waitingTime="0.00" waitingCount="0" stopTime="0.00" timeLoss="5.62" rerouteNo="0" devices="tripinfo_bike17 routing_bike17" vType="my_bike" speedFactor="1.11" vaporized=""/>
    <tripinfo id="bus15" depart="150.00" departLane="7Si_0" departPos="12.10" departSpeed="0.00" departDelay="0.00" arrival="214.00" arrivalLane="6Wo_0" arrivalPos="241.95" arrivalSpeed="13.35" duration="64.00" routeLength="637.44" waitingTime="0.00" waitingCount="0" stopTime="0.00" timeLoss="17.86" rerouteNo="1" devices="tripinfo_bus15 routing_bus15" vType="my_bus" speedFactor="1.00" vaporized=""/>
    <tripinfo id="emergency6" depart="120.00" departLane="0Ni_0" departPos="6.60" departSpeed="0.00" departDelay="0.00" arrival="214.00" arrivalLane="1No_1" arrivalPos="241.95" arrivalSpeed="13.74" duration="94.00" routeLength="642.48" waitingTime="15.00" waitingCount="2" stopTime="0.00" timeLoss="47.44" rerouteNo="1" devices="tripinfo_emergency6 routing_emergency6" vType="my_emergency" speedFactor="1.00" vaporized=""/>
    <tripinfo id="bus14" depart="140.00" departLane="8Ei_0" departPos="12.10" departSpeed="0.00" departDelay="0.00" arrival="219.00" arrivalLane="5Wi_0" arrivalPos="133.90" arrivalSpeed="13.81" duration="79.00" routeLength="657.65" waitingTime="5.00" waitingCount="1" stopTime="0.00" timeLoss="31.11" rerouteNo="1" devices="tripinfo_bus14 routing_bus14" vType="my_bus" speedFactor="1.00" vaporized=""/>
    <tripinfo id="car28" depart="140.00" departLane="1Si_0" departPos="5.10" departSpeed="0.00" departDelay="0.00" arrival="222.00" arrivalLane="6So_1" arrivalPos="241.95" arrivalSpeed="13.72" duration="82.00" routeLength="835.93" waitingTime="5.00" waitingCount="1" stopTime="0.00" timeLoss="24.89" rerouteNo="1" devices="tripinfo_car28 routing_car28" vType="my_car" speedFactor="1.06" vaporized=""/>
    <tripinfo id="car31" depart="155.00" departLane="5Ei_0" departPos="5.10" departSpeed="0.00" departDelay="0.00" arrival="226.00" arrivalLane="6Ei_1" arrivalPos="133.90" arrivalSpeed="12.45" duration="71.00" routeLength="675.29" waitingTime="0.00" waitingCount="0" stopTime="0.00" timeLoss="17.60" rerouteNo="1" devices="tripinfo_car31 routing_car31" vType="my_car" speedFactor="0.92" vaporized=""/>
    <tripinfo id="car32" depart="160.00" departLane="7Si_0" departPos="5.10" departSpeed="0.00" departDelay="0.00" arrival="229.00" arrivalLane="6Wo_1" arrivalPos="241.95" arrivalSpeed="13.01" duration="69.00" routeLength="644.44" waitingTime="9.00" waitingCount="2" stopTime="0.00" timeLoss="23.66" rerouteNo="1" devices="tripinfo_car32 routing_car32" vType="my_car" speedFactor="1.03" vaporized=""/>
    <tripinfo id="car39" depart="195.00" departLane="2Ni_0" departPos="5.10" departSpeed="0.00" departDelay="0.00" arrival="236.00" arrivalLane="2Eo_1" arrivalPos="241.95" arrivalSpeed="13.78" duration="41.00" routeLength="494.44" waitingTime="0.00" waitingCount="0" stopTime="0.00" timeLoss="6.69" rerouteNo="0" devices="tripinfo_car39 routing_car39" vType="my_car" speedFactor="1.07" vaporized=""/>
    <tripinfo id="bus17" depart="170.00" departLane="2Ni_0" departPos="12.10" departSpeed="0.00" departDelay="0.00" arrival="236.00" arrivalLane="5Eo_1" arrivalPos="241.95" arrivalSpeed="13.32" duration="66.00" routeLength="637.44" waitingTime="1.00" waitingCount="1" stopTime="0.00" timeLoss="19.47" rerouteNo="1" devices="tripinfo_bus17 routing_bus17" vType="my_bus" speedFactor="1.00" vaporized=""/>
    <tripinfo id="car35" depart="176.00" departLane="1Wi_0" departPos="5.10" departSpeed="0.00" departDelay="1.00" arrival="237.00" arrivalLane="8Ni_0" arrivalPos="133.90" arrivalSpeed="7.45" duration="61.00" routeLength="567.70" waitingTime="9.00" waitingCount="1" stopTime="0.00" timeLoss="20.94" rerouteNo="1" devices="tripinfo_car35 routing_car35" vType="my_car" speedFactor="1.02" vaporized=""/>
    <tripinfo id="bike11" depart="99.00" departLane="3Ei_0" departPos="1.70" departSpeed="0.00" departDelay="0.00" arrival="237.00" arrivalLane="1No_0" arrivalPos="241.95" arrivalSpeed="5.48" duration="138.00" routeLength="667.59" waitingTime="2.00" waitingCount="1" stopTime="0.00" timeLoss="16.23" rerouteNo="1" devices="tripinfo_bike11 routing_bike11" vType="my_bike" speedFactor="1.00" vaporized=""/>
    <tripinfo id="car38" depart="190.00" departLane="8Ei_0" departPos="5.10" departSpeed="0.00" departDelay="0.00" arrival="239.00" arrivalLane="4Ei_1" arrivalPos="133.90" arrivalSpeed="12.31" duration="49.00" routeLength="525.29" waitingTime="0.00" waitingCount="0" stopTime="0.00" timeLoss="9.43" rerouteNo="1" devices="tripinfo_car38 routing_car38" vType="my_car" speedFactor="0.96" vaporized=""/>
    <tripinfo id="bike15" depart="137.00" departLane="7Ni_0" departPos="1.70" departSpeed="0.00" departDelay="2.00" arrival="241.00" arrivalLane="6So_0" arrivalPos="241.95" arrivalSpeed="5.12" duration="104.00" routeLength="528.69" waitingTime="0.00" waitingCount="0" stopTime="0.00" timeLoss="7.22" rerouteNo="1" devices="tripinfo_bike15 routing_bike15" vType="my_bike" speedFactor="1.10" vaporized=""/>
    <tripinfo id="emergency8" depart="160.00" departLane="1Ni_0" departPos="6.60" departSpeed="0.00" departDelay="0.00" arrival="242.00" arrivalLane="5Ni_0" arrivalPos="133.90" arrivalSpeed="13.39" duration="82.00" routeLength="523.79" waitingTime="34.00" waitingCount="1" stopTime="0.00" timeLoss="43.52" rerouteNo="1" devices="tripinfo_emergency8 routing_emergency8" vType="my_emergency" speedFactor="1.00" vaporized=""/>
    <tripinfo id="car33" depart="165.00" departLane="2Ei_0" departPos="5.10" departSpeed="0.00" departDelay="0.00" arrival="244.00" arrivalLane="0No_0" arrivalPos="241.95" arrivalSpeed="11.62" duration="79.00" routeLength="783.80" waitingTime="6.00" waitingCount="1" stopTime="0.00" timeLoss="17.46" rerouteNo="1" devices="tripinfo_car33 routing_car33" vType="my_car" speedFactor="0.93" vaporized=""/>
    <tripinfo id="bike3" depart="27.00" departLane="8Ei_0" departPos="1.70" departSpeed="0.00" departDelay="0.00" arrival="245.00" arrivalLane="0Wo_0" arrivalPos="241.95" arrivalSpeed="4.90" duration="218.00" routeLength="1075.18" waitingTime="0.00" waitingCount="0" stopTime="0.00" timeLoss="15.99" rerouteNo="1" devices="tripinfo_bike3 routing_bike3" vType="my_bike" speedFactor="0.96" vaporized=""/>
    <tripinfo id="bike7" depart="63.00" departLane="5Wi_0" departPos="1.70" departSpeed="0.00" departDelay="0.00" arrival="245.00" arrivalLane="4Wi_0" arrivalPos="133.90" arrivalSpeed="5.39" duration="182.00" routeLength="837.80" waitingTime="7.00" waitingCount="2" stopTime="0.00" timeLoss="29.49" rerouteNo="1" devices="tripinfo_bike7 routing_bike7" vType="my_bike" speedFactor="1.11" vaporized=""/>
    <tripinfo id="bus19" depart="194.00" departLane="8Ei_0" departPos="12.10" departSpeed="0.00" departDelay="4.00" arrival="246.00" arrivalLane="5Eo_0" arrivalPos="241.95" arrivalSpeed="13.55" duration="52.00" routeLength="615.70" waitingTime="0.00" waitingCount="0" stopTime="0.00" timeLoss="7.35" rerouteNo="1" devices="tripinfo_bus19 routing_bus19" vType="my_bus" speedFactor="1.00" vaporized=""/>
    <tripinfo id="emergency5" depart="100.00" departLane="1Ni_0" departPos="6.60" departSpeed="0.00" departDelay="0.00" arrival="248.00" arrivalLane="4Si_1" arrivalPos="133.90" arrivalSpeed="13.83" duration="148.00" routeLength="951.59" waitingTime="24.00" waitingCount="3" stopTime="0.00" timeLoss="79.35" rerouteNo="1" devices="tripinfo_emergency5 routing_emergency5" vType="my_emergency" speedFactor="1.00" vaporized=""/>
    <tripinfo id="bike18" depart="162.00" departLane="7Ni_0" departPos="1.70" departSpeed="0.00" departDelay="0.00" arrival="250.00" arrivalLane="5Si_0" arrivalPos="133.90" arrivalSpeed="5.45" duration="88.00" routeLength="431.28" waitingTime="0.00" waitingCount="0" stopTime="0.00" timeLoss="8.77" rerouteNo="1" devices="tripinfo_bike18 routing_bike18" vType="my_bike" speedFactor="1.08" vaporized=""/>